annas-macbook-pro-3.local 172.19.249
Q-Chem Developer Version! Running on 172.19.249.*
                  Welcome to Q-Chem
     A Quantum Leap Into The Future Of Chemistry


 Q-Chem 5.1, Q-Chem, Inc., Pleasanton, CA (2018)

 Yihan Shao,  Zhengting Gan,  E. Epifanovsky,  A. T. B. Gilbert,  M. Wormit,  
 J. Kussmann,  A. W. Lange,  A. Behn,  Jia Deng,  Xintian Feng,  D. Ghosh,  
 M. Goldey,  P. R. Horn,  L. D. Jacobson,  I. Kaliman,  T. Kus,  A. Landau,  
 Jie Liu,  E. I. Proynov,  R. M. Richard,  R. P. Steele,  E. J. Sundstrom,  
 H. L. Woodcock III,  P. M. Zimmerman,  D. Zuev,  B. Albrecht,  E. Alguire,  
 S. A. Baeppler,  D. Barton,  Z. Benda,  Y. A. Bernard,  E. J. Berquist,  
 K. B. Bravaya,  H. Burton,  D. Casanova,  Chun-Min Chang,  Yunqing Chen,  
 A. Chien,  K. D. Closser,  M. P. Coons,  S. Coriani,  S. Dasgupta,  
 A. L. Dempwolff,  M. Diedenhofen,  Hainam Do,  R. G. Edgar,  Po-Tung Fang,  
 S. Faraji,  S. Fatehi,  Qingguo Feng,  K. D. Fenk,  J. Fosso-Tande,  
 Qinghui Ge,  A. Ghysels,  G. Gidofalvi,  J. Gomes,  J. Gonthier,  A. Gunina,  
 M. W. D. Hanson-Heine,  P. H. P. Harbach,  A. W. Hauser,  J. E. Herr,  
 E. G. Hohenstein,  Z. C. Holden,  Kerwin Hui,  T.-C. Jagau,  Hyunjun Ji,  
 B. Kaduk,  K. Khistyaev,  Jaehoon Kim,  P. Klunzinger,  K. Koh,  
 D. Kosenkov,  L. Koulias,  T. Kowalczyk,  C. M. Krauter,  A. Kunitsa,  
 Ka Un Lao,  A. Laurent,  K. V. Lawler,  Joonho Lee,  D. Lefrancois,  
 S. Lehtola,  D. S. Levine,  Yi-Pei Li,  You-Sheng Lin,  Fenglai Liu,  
 E. Livshits,  A. Luenser,  P. Manohar,  E. Mansoor,  S. F. Manzer,  
 Shan-Ping Mao,  Yuezhi Mao,  N. Mardirossian,  A. V. Marenich,  
 T. Markovich,  L. A. Martinez-Martinez,  S. A. Maurer,  N. J. Mayhall,  
 S. C. McKenzie,  J.-M. Mewes,  A. F. Morrison,  J. W. Mullinax,  K. Nanda,  
 T. S. Nguyen-Beck,  R. Olivares-Amaya,  J. A. Parkhill,  T. M. Perrine,  
 F. Plasser,  P. Pokhilko,  S. Prager,  A. Prociuk,  E. Ramos,  D. R. Rehn,  
 F. Rob,  M. Schneider,  N. Sergueev,  S. M. Sharada,  S. Sharma,  
 D. W. Small,  T. Stauch,  T. Stein,  Yu-Chuan Su,  A. J. W. Thom,  
 A. Tkatchenko,  T. Tsuchimochi,  N. M. Tubman,  L. Vogt,  M. L. Vidal,  
 O. Vydrov,  M. A. Watson,  J. Wenzel,  M. de Wergifosse,  T. A. Wesolowski,  
 A. White,  J. Witte,  A. Yamada,  Jun Yang,  K. Yao,  S. Yeganeh,  
 S. R. Yost,  Zhi-Qiang You,  A. Zech,  Igor Ying Zhang,  Xing Zhang,  
 Yan Zhao,  Ying Zhu,  B. R. Brooks,  G. K. L. Chan,  C. J. Cramer,  
 M. S. Gordon,  W. J. Hehre,  A. Klamt,  M. W. Schmidt,  C. D. Sherrill,  
 D. G. Truhlar,  A. Aspuru-Guzik,  R. Baer,  A. T. Bell,  N. A. Besley,  
 Jeng-Da Chai,  R. A. DiStasio Jr.,  A. Dreuw,  B. D. Dunietz,  
 T. R. Furlani,  Chao-Ping Hsu,  Yousung Jung,  Jing Kong,  D. S. Lambrecht,  
 WanZhen Liang,  C. Ochsenfeld,  V. A. Rassolov,  L. V. Slipchenko,  
 J. E. Subotnik,  T. Van Voorhis,  J. M. Herbert,  A. I. Krylov,  
 P. M. W. Gill,  M. Head-Gordon

 Contributors to earlier versions of Q-Chem not listed above: 
 R. D. Adamson,  B. Austin,  J. Baker,  G. J. O. Beran,  K. Brandhorst,  
 S. T. Brown,  E. F. C. Byrd,  A. K. Chakraborty,  C.-L. Cheng,  
 Siu Hung Chien,  D. M. Chipman,  D. L. Crittenden,  H. Dachsel,  
 R. J. Doerksen,  A. D. Dutoi,  L. Fusti-Molnar,  W. A. Goddard III,  
 A. Golubeva-Zadorozhnaya,  S. R. Gwaltney,  G. Hawkins,  A. Heyden,  
 S. Hirata,  G. Kedziora,  F. J. Keil,  C. Kelley,  Jihan Kim,  R. A. King,  
 R. Z. Khaliullin,  P. P. Korambath,  W. Kurlancheek,  A. M. Lee,  M. S. Lee,  
 S. V. Levchenko,  Ching Yeh Lin,  D. Liotard,  R. C. Lochan,  I. Lotan,  
 P. E. Maslen,  N. Nair,  D. P. O'Neill,  D. Neuhauser,  E. Neuscamman,  
 C. M. Oana,  R. Olson,  B. Peters,  R. Peverati,  P. A. Pieniazek,  
 Y. M. Rhee,  J. Ritchie,  M. A. Rohrdanz,  E. Rosta,  N. J. Russ,  
 H. F. Schaefer III,  N. E. Schultz,  N. Shenvi,  A. C. Simmonett,  A. Sodt,  
 D. Stuck,  K. S. Thanthiriwatte,  V. Vanovschi,  Tao Wang,  A. Warshel,  
 C. F. Williams,  Q. Wu,  X. Xu,  W. Zhang

 Please cite Q-Chem as follows:
 Y. Shao et al., Mol. Phys. 113, 184-215 (2015)
 DOI: 10.1080/00268976.2014.952696

 Q-Chem 5.1.0 for Mac (Intel) OS X

 Parts of Q-Chem use Armadillo 8.300.2 (Tropical Shenanigans).
 http://arma.sourceforge.net/

 Q-Chem begins on Sun Sep 23 07:37:42 2018  

Annas-MacBook-Pro-3.local
Host: 0

     Scratch files written to /scratch/qchem79971//
Processing $rem in /Users/annakrylov/.qchemrc.
CC_MEMORY  4000
Core orbitals will be frozen

Checking the input file for inconsistencies... 	...done.

--------------------------------------------------------------
User input:
--------------------------------------------------------------
$comment
ClBz, ionized states at the optimized structure of the A2 cation, to figure out state ordering
$end

$molecule
0 1
H        -2.1375917741    0.0000000000    0.3786218635
C        -1.1918260625    0.0000000000   -0.1453848291
C        -1.1865968607    0.0000000000   -1.5897166878
H        -2.1393643245    0.0000000000   -2.1011554060
C         0.0000000000    0.0000000000   -2.3047495571
H         0.0000000000    0.0000000000   -3.3832045096
C         1.1865968607    0.0000000000   -1.5897166878
H         2.1393643245    0.0000000000   -2.1011554060
C         1.1918260625    0.0000000000   -0.1453848291
H         2.1375917741    0.0000000000    0.3786218635
C         0.0000000000    0.0000000000    0.5668420231
Cl        0.0000000000    0.0000000000    2.2767399233
$end

$rem
   BASIS  = cc-pVTZ
   JOB_TYPE  =  SP
   METHOD  =  EOM-CCSD
   IP_STATES = [0,1,0,1]  Only need B2 and A2 states
!   CC_MEMORY = 80000   
! use SP code 
!  cc_single_prec=1
!  eom_single_prec=1
!  cc_sp_dm = 1
!  cc_sp_t_conv = 4
!  cc_sp_e_conv = 6
!  cc_erase_dp_integrals = 1
$end

--------------------------------------------------------------
 ----------------------------------------------------------------
             Standard Nuclear Orientation (Angstroms)
    I     Atom           X                Y                Z
 ----------------------------------------------------------------
    1      H      -2.1375917741     0.0000000000     0.3678004205
    2      C      -1.1918260625     0.0000000000    -0.1562062721
    3      C      -1.1865968607     0.0000000000    -1.6005381308
    4      H      -2.1393643245     0.0000000000    -2.1119768490
    5      C      -0.0000000000     0.0000000000    -2.3155710001
    6      H      -0.0000000000     0.0000000000    -3.3940259526
    7      C       1.1865968607     0.0000000000    -1.6005381308
    8      H       2.1393643245     0.0000000000    -2.1119768490
    9      C       1.1918260625    -0.0000000000    -0.1562062721
   10      H       2.1375917741    -0.0000000000     0.3678004205
   11      C       0.0000000000    -0.0000000000     0.5560205801
   12      Cl      0.0000000000    -0.0000000000     2.2659184803
 ----------------------------------------------------------------
 Molecular Point Group                 C2v   NOp =  4
 Largest Abelian Subgroup              C2v   NOp =  4
 Nuclear Repulsion Energy =   314.5526368179 hartrees
 There are       29 alpha and       29 beta electrons
 Requested basis set is cc-pVTZ
 There are 102 shells and 284 basis functions
MEM_TOTAL is adjusted to CC_MEMORY + MEM_STATIC!
 Total memory of 4192MB is distributed as follows: 
   QALLOC including MEM_STATIC uses 192MB
   MEM_STATIC is set to 192MB
   CCMAN JOB total memory use is  4000MB
 Warning: actual memory use might exceed 4192MB

 Total QAlloc Memory Limit    192 MB
 Mega-Array Size       188 MB
 MEM_STATIC part       192 MB

                       Distance Matrix (Angstroms)
             H (  1)   C (  2)   C (  3)   H (  4)   C (  5)   H (  6)
   C (  2)  1.081229
   C (  3)  2.186035  1.444341
   H (  4)  2.479778  2.173216  1.081358
   C (  5)  3.430711  2.466436  1.385382  2.149030
   H (  6)  4.326735  3.450207  2.150491  2.494099  1.078455
   C (  7)  3.863235  2.782623  2.373194  3.365054  1.385382  2.150491
   H (  8)  4.943850  3.862883  3.365054  4.278729  2.149030  2.494099
   C (  9)  3.370401  2.383652  2.782623  3.862883  2.466436  3.450207
   H ( 10)  4.275184  3.370401  3.863235  4.943850  3.430711  4.326735
   C ( 11)  2.145862  1.388422  2.461454  3.419808  2.871592  3.950047
   Cl( 12)  2.858697  2.699470  4.044440  4.872663  4.581489  5.659944
             C (  7)   H (  8)   C (  9)   H ( 10)   C ( 11)
   H (  8)  1.081358
   C (  9)  1.444341  2.173216
   H ( 10)  2.186035  2.479778  1.081229
   C ( 11)  2.461454  3.419808  1.388422  2.145862
   Cl( 12)  4.044440  4.872663  2.699470  2.858697  1.709898

 A cutoff of  1.0D-14 yielded   4982 shell pairs
 There are     39076 function pairs (     51060 Cartesian)
 Smallest overlap matrix eigenvalue = 4.17E-05

 Scale SEOQF with 1.000000e-01/1.000000e+00/1.000000e-01

 Standard Electronic Orientation quadrupole field applied
 Nucleus-field energy     =    -0.0000000167 hartrees
 Guess from superposition of atomic densities
 Warning:  Energy on first SCF cycle will be non-variational
 SAD guess density has 58.000000 electrons

 -----------------------------------------------------------------------
  General SCF calculation program by
  Eric Jon Sundstrom, Paul Horn, Yuezhi Mao, Dmitri Zuev, Alec White,
  David Stuck, Shaama M.S., Shane Yost, Joonho Lee, David Small,
  Daniel Levine, Susi Lehtola, Hugh Burton, Evgeny Epifanovsky
 -----------------------------------------------------------------------
 Hartree-Fock
 A restricted SCF calculation will be
 performed using DIIS
 SCF converges when DIIS error is below 1.0e-08
 ---------------------------------------
  Cycle       Energy         DIIS error
 ---------------------------------------
    1    -692.3275375037      3.22e-02  
    2    -689.6264397404      2.33e-03  
    3    -689.6944620503      1.03e-03  
    4    -689.7042620892      4.70e-04  
    5    -689.7070426759      8.78e-05  
    6    -689.7071460181      2.62e-05  
    7    -689.7071615167      9.02e-06  
    8    -689.7071640755      3.77e-06  
    9    -689.7071645806      1.47e-06  
   10    -689.7071646567      7.13e-07  
   11    -689.7071646898      3.07e-07  
   12    -689.7071646948      6.96e-08  
   13    -689.7071646949      1.66e-08  
   14    -689.7071646953      4.70e-09  Convergence criterion met
 ---------------------------------------
 SCF time:   CPU 288.46s  wall 291.00s 
 SCF   energy in the final basis set =     -689.7071646953


 ------------------------------------------------------------------------------

   CCMAN2: suite of methods based on coupled cluster
           and equation of motion theories.

   Components:
   * libvmm-1.3-trunk
     by Evgeny Epifanovsky, Ilya Kaliman.
   * libtensor-2.5-trunk
     by Evgeny Epifanovsky, Michael Wormit, Dmitry Zuev, Sam Manzer, 
        Ilya Kaliman.
   * libcc-2.5-trunk
     by Evgeny Epifanovsky, Arik Landau, Tomasz Kus, Kirill Khistyaev, 
        Dmitry Zuev, Prashant Manohar, Xintian Feng, Anna Krylov, 
        Matthew Goldey, Alec White, Thomas Jagau, Kaushik Nanda, 
        Anastasia Gunina, Alexander Kunitsa, Joonho Lee.

   CCMAN original authors:
   Anna I. Krylov, C. David Sherrill, Steven R. Gwaltney,
   Edward F. C. Byrd (2000)
   Sergey V. Levchenko, Lyudmila V. Slipchenko, Tao Wang,
   Ana-Maria C. Cristian (2003)
   Piotr A. Pieniazek, C. Melania Oana, Evgeny Epifanovsky (2007)
   Prashant Manohar (2009)

 ------------------------------------------------------------------------------


 Calculation will run on 1 core with 4000MB of RAM.


 Alpha MOs, Restricted
 -- Occupied --                  
-104.84  -11.30  -11.25  -11.25  -11.25  -11.25  -11.24  -10.57
  1 A1    2 A1    3 A1    1 B1    4 A1    2 B1    5 A1    6 A1                 
 -8.035  -8.033  -8.033  -1.191  -1.120  -1.014  -1.003  -0.848
  7 A1    3 B1    1 B2    8 A1    9 A1    4 B1   10 A1    5 B1                 
 -0.813  -0.708  -0.652  -0.642  -0.601  -0.587  -0.544  -0.520
 11 A1   12 A1   13 A1    6 B1   14 A1    7 B1    2 B2    8 B1                 
 -0.510  -0.470  -0.456  -0.342  -0.337
 15 A1    3 B2    9 B1    4 B2    1 A2                                         
 -- Virtual --                   
  0.105   0.119   0.141   0.166   0.174   0.203   0.206   0.217
  2 A2    5 B2   16 A1   10 B1   17 A1   18 A1   11 B1   19 A1                 
  0.308   0.310   0.344   0.380   0.392   0.403   0.425   0.427
  6 B2   20 A1   12 B1   13 B1   21 A1   22 A1    7 B2   23 A1                 
  0.432   0.466   0.466   0.491   0.497   0.505   0.520   0.524
 14 B1    8 B2    3 A2   15 B1   24 A1   25 A1   16 B1    9 B2                 
  0.549   0.561   0.566   0.573   0.581   0.592   0.592   0.595
  4 A2   26 A1   17 B1   27 A1   10 B2   11 B2   18 B1   28 A1                 
  0.625   0.639   0.654   0.656   0.670   0.694   0.697   0.714
 29 A1   19 B1   30 A1    5 A2   12 B2   20 B1   31 A1   21 B1                 
  0.729   0.778   0.806   0.813   0.840   0.854   0.856   0.876
 32 A1   13 B2   22 B1   33 A1    6 A2   34 A1    7 A2   23 B1                 
  0.910   0.929   0.950   0.956   0.971   0.991   1.022   1.027
 14 B2   24 B1   35 A1    8 A2   36 A1   37 A1   25 B1   26 B1                 
  1.074   1.081   1.096   1.102   1.165   1.196   1.203   1.234
 15 B2   38 A1   39 A1   27 B1   16 B2    9 A2   17 B2   40 A1                 
  1.245   1.266   1.269   1.291   1.317   1.338   1.378   1.386
 28 B1   18 B2   41 A1   10 A2   42 A1   43 A1   29 B1   44 A1                 
  1.400   1.477   1.477   1.481   1.488   1.496   1.528   1.548
 30 B1   45 A1   19 B2   31 B1   11 A2   32 B1   33 B1   20 B2                 
  1.548   1.572   1.581   1.610   1.614   1.665   1.708   1.721
 46 A1   34 B1   12 A2   47 A1   35 B1   48 A1   49 A1   36 B1                 
  1.744   1.754   1.789   1.932   1.999   2.098   2.130   2.165
 21 B2   50 A1   13 A2   51 A1   37 B1   52 A1   38 B1   53 A1                 
  2.244   2.250   2.254   2.268   2.304   2.317   2.356   2.367
 22 B2   14 A2   39 B1   54 A1   55 A1   23 B2   40 B1   56 A1                 
  2.379   2.407   2.424   2.430   2.434   2.448   2.455   2.458
 15 A2   24 B2   25 B2   41 B1   57 A1   42 B1   16 A2   58 A1                 
  2.506   2.543   2.558   2.578   2.617   2.633   2.668   2.679
 26 B2   17 A2   43 B1   27 B2   59 A1   44 B1   28 B2   60 A1                 
  2.688   2.699   2.721   2.760   2.785   2.797   2.814   2.852
 18 A2   61 A1   45 B1   62 A1   46 B1   63 A1   29 B2   30 B2                 
  2.862   2.874   2.912   2.942   2.959   2.994   3.019   3.022
 47 B1   64 A1   48 B1   19 A2   31 B2   32 B2   33 B2   65 A1                 
  3.035   3.061   3.090   3.109   3.119   3.142   3.177   3.201
 49 B1   20 A2   21 A2   66 A1   50 B1   67 A1   51 B1   34 B2                 
  3.230   3.243   3.243   3.270   3.292   3.302   3.341   3.354
 22 A2   35 B2   68 A1   36 B2   52 B1   69 A1   53 B1   70 A1                 
  3.367   3.373   3.382   3.395   3.407   3.425   3.436   3.449
 23 A2   54 B1   71 A1   72 A1   55 B1   73 A1   24 A2   74 A1                 
  3.459   3.470   3.500   3.544   3.572   3.585   3.619   3.629
 25 A2   37 B2   56 B1   38 B2   57 B1   75 A1   26 A2   76 A1                 
  3.643   3.671   3.675   3.677   3.682   3.721   3.742   3.742
 39 B2   27 A2   40 B2   58 B1   59 B1   41 B2   77 A1   60 B1                 
  3.787   3.811   3.895   3.954   3.957   3.972   3.998   4.055
 28 A2   78 A1   79 A1   29 A2   61 B1   80 A1   42 B2   43 B2                 
  4.059   4.063   4.072   4.104   4.109   4.128   4.132   4.133
 30 A2   81 A1   62 B1   63 B1   82 A1   44 B2   83 A1   31 A2                 
  4.162   4.178   4.198   4.236   4.242   4.332   4.351   4.367
 64 B1   45 B2   32 A2   65 B1   84 A1   85 A1   66 B1   33 A2                 
  4.395   4.433   4.451   4.472   4.475   4.491   4.499   4.541
 46 B2   86 A1   67 B1   87 A1   47 B2   68 B1   88 A1   69 B1                 
  4.585   4.587   4.628   4.636   4.639   4.642   4.665   4.679
 89 A1   34 A2   48 B2   70 B1   35 A2   49 B2   90 A1   71 B1                 
  4.715   4.799   4.852   4.988   5.005   5.008   5.035   5.064
 91 A1   92 A1   72 B1   93 A1   50 B2   94 A1   51 B2   73 B1                 
  5.088   5.112   5.120   5.185   5.234   5.285   5.317   5.343
 36 A2   37 A2   74 B1   95 A1   52 B2   75 B1   96 A1   38 A2                 
  5.373   5.421   5.469   5.506   5.566   5.691   5.848   5.857
 76 B1   97 A1   98 A1   77 B1   78 B1   53 B2   99 A1   79 B1                 
  5.893   6.063   6.193   6.256   6.358   6.416   6.555   6.720
100 A1  101 A1   80 B1   81 B1   82 B1  102 A1  103 A1  104 A1                 
  7.095   8.985  12.141  13.118  13.316  13.416  15.729
 83 B1  105 A1  106 A1   84 B1   85 B1  107 A1  108 A1                         

 Beta MOs, Restricted
 -- Occupied --                  
-104.84  -11.30  -11.25  -11.25  -11.25  -11.25  -11.24  -10.57
  1 A1    2 A1    3 A1    1 B1    4 A1    2 B1    5 A1    6 A1                 
 -8.035  -8.033  -8.033  -1.191  -1.120  -1.014  -1.003  -0.848
  7 A1    3 B1    1 B2    8 A1    9 A1    4 B1   10 A1    5 B1                 
 -0.813  -0.708  -0.652  -0.642  -0.601  -0.587  -0.544  -0.520
 11 A1   12 A1   13 A1    6 B1   14 A1    7 B1    2 B2    8 B1                 
 -0.510  -0.470  -0.456  -0.342  -0.337
 15 A1    3 B2    9 B1    4 B2    1 A2                                         
 -- Virtual --                   
  0.105   0.119   0.141   0.166   0.174   0.203   0.206   0.217
  2 A2    5 B2   16 A1   10 B1   17 A1   18 A1   11 B1   19 A1                 
  0.308   0.310   0.344   0.380   0.392   0.403   0.425   0.427
  6 B2   20 A1   12 B1   13 B1   21 A1   22 A1    7 B2   23 A1                 
  0.432   0.466   0.466   0.491   0.497   0.505   0.520   0.524
 14 B1    8 B2    3 A2   15 B1   24 A1   25 A1   16 B1    9 B2                 
  0.549   0.561   0.566   0.573   0.581   0.592   0.592   0.595
  4 A2   26 A1   17 B1   27 A1   10 B2   11 B2   18 B1   28 A1                 
  0.625   0.639   0.654   0.656   0.670   0.694   0.697   0.714
 29 A1   19 B1   30 A1    5 A2   12 B2   20 B1   31 A1   21 B1                 
  0.729   0.778   0.806   0.813   0.840   0.854   0.856   0.876
 32 A1   13 B2   22 B1   33 A1    6 A2   34 A1    7 A2   23 B1                 
  0.910   0.929   0.950   0.956   0.971   0.991   1.022   1.027
 14 B2   24 B1   35 A1    8 A2   36 A1   37 A1   25 B1   26 B1                 
  1.074   1.081   1.096   1.102   1.165   1.196   1.203   1.234
 15 B2   38 A1   39 A1   27 B1   16 B2    9 A2   17 B2   40 A1                 
  1.245   1.266   1.269   1.291   1.317   1.338   1.378   1.386
 28 B1   18 B2   41 A1   10 A2   42 A1   43 A1   29 B1   44 A1                 
  1.400   1.477   1.477   1.481   1.488   1.496   1.528   1.548
 30 B1   45 A1   19 B2   31 B1   11 A2   32 B1   33 B1   20 B2                 
  1.548   1.572   1.581   1.610   1.614   1.665   1.708   1.721
 46 A1   34 B1   12 A2   47 A1   35 B1   48 A1   49 A1   36 B1                 
  1.744   1.754   1.789   1.932   1.999   2.098   2.130   2.165
 21 B2   50 A1   13 A2   51 A1   37 B1   52 A1   38 B1   53 A1                 
  2.244   2.250   2.254   2.268   2.304   2.317   2.356   2.367
 22 B2   14 A2   39 B1   54 A1   55 A1   23 B2   40 B1   56 A1                 
  2.379   2.407   2.424   2.430   2.434   2.448   2.455   2.458
 15 A2   24 B2   25 B2   41 B1   57 A1   42 B1   16 A2   58 A1                 
  2.506   2.543   2.558   2.578   2.617   2.633   2.668   2.679
 26 B2   17 A2   43 B1   27 B2   59 A1   44 B1   28 B2   60 A1                 
  2.688   2.699   2.721   2.760   2.785   2.797   2.814   2.852
 18 A2   61 A1   45 B1   62 A1   46 B1   63 A1   29 B2   30 B2                 
  2.862   2.874   2.912   2.942   2.959   2.994   3.019   3.022
 47 B1   64 A1   48 B1   19 A2   31 B2   32 B2   33 B2   65 A1                 
  3.035   3.061   3.090   3.109   3.119   3.142   3.177   3.201
 49 B1   20 A2   21 A2   66 A1   50 B1   67 A1   51 B1   34 B2                 
  3.230   3.243   3.243   3.270   3.292   3.302   3.341   3.354
 22 A2   35 B2   68 A1   36 B2   52 B1   69 A1   53 B1   70 A1                 
  3.367   3.373   3.382   3.395   3.407   3.425   3.436   3.449
 23 A2   54 B1   71 A1   72 A1   55 B1   73 A1   24 A2   74 A1                 
  3.459   3.470   3.500   3.544   3.572   3.585   3.619   3.629
 25 A2   37 B2   56 B1   38 B2   57 B1   75 A1   26 A2   76 A1                 
  3.643   3.671   3.675   3.677   3.682   3.721   3.742   3.742
 39 B2   27 A2   40 B2   58 B1   59 B1   41 B2   77 A1   60 B1                 
  3.787   3.811   3.895   3.954   3.957   3.972   3.998   4.055
 28 A2   78 A1   79 A1   29 A2   61 B1   80 A1   42 B2   43 B2                 
  4.059   4.063   4.072   4.104   4.109   4.128   4.132   4.133
 30 A2   81 A1   62 B1   63 B1   82 A1   44 B2   83 A1   31 A2                 
  4.162   4.178   4.198   4.236   4.242   4.332   4.351   4.367
 64 B1   45 B2   32 A2   65 B1   84 A1   85 A1   66 B1   33 A2                 
  4.395   4.433   4.451   4.472   4.475   4.491   4.499   4.541
 46 B2   86 A1   67 B1   87 A1   47 B2   68 B1   88 A1   69 B1                 
  4.585   4.587   4.628   4.636   4.639   4.642   4.665   4.679
 89 A1   34 A2   48 B2   70 B1   35 A2   49 B2   90 A1   71 B1                 
  4.715   4.799   4.852   4.988   5.005   5.008   5.035   5.064
 91 A1   92 A1   72 B1   93 A1   50 B2   94 A1   51 B2   73 B1                 
  5.088   5.112   5.120   5.185   5.234   5.285   5.317   5.343
 36 A2   37 A2   74 B1   95 A1   52 B2   75 B1   96 A1   38 A2                 
  5.373   5.421   5.469   5.506   5.566   5.691   5.848   5.857
 76 B1   97 A1   98 A1   77 B1   78 B1   53 B2   99 A1   79 B1                 
  5.893   6.063   6.193   6.256   6.358   6.416   6.555   6.720
100 A1  101 A1   80 B1   81 B1   82 B1  102 A1  103 A1  104 A1                 
  7.095   8.985  12.141  13.118  13.316  13.416  15.729
 83 B1  105 A1  106 A1   84 B1   85 B1  107 A1  108 A1                         

 Occupation and symmetry of molecular orbitals

 Point group: C2v (4 irreducible representations).

                           A1   A2   B1   B2    All 
 ----------------------------------------------------
 All molecular orbitals:
  - Alpha                  108  38   85   53    284 
  - Beta                   108  38   85   53    284 
 ----------------------------------------------------
 Alpha orbitals:
  - Frozen occupied        7    0    3    1     11  
  - Active occupied        8    1    6    3     18  
  - Active virtual         93   37   76   49    255 
  - Frozen virtual         0    0    0    0     0   
 ----------------------------------------------------
 Beta orbitals:
  - Frozen occupied        7    0    3    1     11  
  - Active occupied        8    1    6    3     18  
  - Active virtual         93   37   76   49    255 
  - Frozen virtual         0    0    0    0     0   
 ----------------------------------------------------

 Import integrals:   CPU 0.00 s  wall 0.00 s

 Import integrals:   CPU 420.80 s  wall 326.23 s

 MP2 amplitudes:   CPU 5.61 s  wall 5.88 s

           CCSD T amplitudes will be solved using DIIS.

           Start     Size      MaxIter   EConv     TConv     
           3         7         100       1.00e-06  1.00e-04  
 ------------------------------------------------------------------------------
           Energy (a.u.)   Ediff      Tdiff       Comment
 ------------------------------------------------------------------------------
          -690.84257265                           
     1    -690.83620562   6.37e-03   1.04e+00     Step took 41.39.
     2    -690.87021553   3.40e-02   1.44e-01     
     3    -690.86906003   1.16e-03   5.08e-02     
     4    -690.87200446   2.94e-03   1.45e-02     Switched to DIIS steps.
     5    -690.87295600   9.52e-04   1.14e-02     
     6    -690.87298555   2.96e-05   2.10e-03     
     7    -690.87297055   1.50e-05   1.05e-03     
     8    -690.87296935   1.19e-06   2.04e-04     
     9    -690.87296943   7.17e-08   7.63e-05     
 ------------------------------------------------------------------------------
          -690.87296943                           CCSD T converged.

 SCF energy                 = -689.70716470
 MP2 energy                 = -690.84257265
 CCSD correlation energy     =   -1.16580473
 CCSD total energy           = -690.87296943

 CCSD  T1^2 = 0.0076  T2^2 = 0.4301  Leading amplitudes:

 Amplitude    Orbitals with energies
  0.0228       1 (A2) A                  ->    3 (A2) A                   
              -0.3370                          0.4660                     
  0.0228       1 (A2) B                  ->    3 (A2) B                   
              -0.3370                          0.4660                     
  0.0165       4 (B2) A                  ->    8 (B2) A                   
              -0.3419                          0.4656                     
  0.0165       4 (B2) B                  ->    8 (B2) B                   
              -0.3419                          0.4656                     

 Amplitude    Orbitals with energies
 -0.0882       1 (A2) A      1 (A2) B    ->    2 (A2) A      2 (A2) B     
              -0.3370       -0.3370            0.1054        0.1054       
  0.0882       1 (A2) A      1 (A2) B    ->    2 (A2) B      2 (A2) A     
              -0.3370       -0.3370            0.1054        0.1054       
  0.0882       1 (A2) B      1 (A2) A    ->    2 (A2) A      2 (A2) B     
              -0.3370       -0.3370            0.1054        0.1054       
 -0.0882       1 (A2) B      1 (A2) A    ->    2 (A2) B      2 (A2) A     
              -0.3370       -0.3370            0.1054        0.1054       

 Computing CCSD intermediates for later calculations
 Finished.

 CCSD calculation:   CPU 819.16 s  wall 3565.12 s

        Solving for EOMIP-CCSD A2 transitions.

      EOMIP-CCSD/MP2 right amplitudes will be solved using Davidson.
        Amplitudes will be solved using standard  algorithm.
     Hard-coded thresholds: 
     LinDepThresh=1.00e-15  NormThresh=1.00e-06  ReorthogonThresh=1.00e-02

      Roots     MaxVec    MaxIter   Precond   Conv      Shift    
      1         120       60        1         1.00e-05  0.00e+00  
 ------------------------------------------------------------------------------
      Iter ConvRoots NVecs ResNorm Current eigenvalues (eV)
 ------------------------------------------------------------------------------
      0    0      1     9.31e-02   11.4997   
      1    0      2     2.91e-02   9.8148   
      2    0      3     7.66e-04   9.3604   
      3    0      4     4.32e-05   9.3403   
      4    1      5     1.77e-06   9.3390*  

     Davidson procedure converged

 EOMIP transition 1/A2
 Total energy = -690.52976661 a.u.  Excitation energy = 9.3390 eV.
 R1^2 = 0.9402  R2^2 = 0.0598  Res^2 = 1.77e-06
 Conv-d = yes

 Amplitude    Transitions between orbitals
 -0.9696       1 (A2) A                  ->    infty        

              Summary of significant orbitals:

               Number  Type             Irrep      Energy
               29      Occ  Alpha       1 (A2)     -0.3370


        Solving for EOMIP-CCSD B2 transitions.

      EOMIP-CCSD/MP2 right amplitudes will be solved using Davidson.
        Amplitudes will be solved using standard  algorithm.
     Hard-coded thresholds: 
     LinDepThresh=1.00e-15  NormThresh=1.00e-06  ReorthogonThresh=1.00e-02

      Roots     MaxVec    MaxIter   Precond   Conv      Shift    
      1         120       60        1         1.00e-05  0.00e+00  
 ------------------------------------------------------------------------------
      Iter ConvRoots NVecs ResNorm Current eigenvalues (eV)
 ------------------------------------------------------------------------------
      0    0      1     1.02e-01   11.5790   
      1    0      2     3.06e-02   9.7408   
      2    0      3     8.83e-04   9.2757   
      3    0      4     9.66e-05   9.2561   
      4    0      5     2.03e-05   9.2530   
      5    1      6     2.51e-06   9.2523*  

     Davidson procedure converged

 EOMIP transition 1/B2
 Total energy = -690.53295421 a.u.  Excitation energy = 9.2523 eV.
 R1^2 = 0.9384  R2^2 = 0.0616  Res^2 = 2.51e-06
 Conv-d = yes

 Amplitude    Transitions between orbitals
  0.9670       4 (B2) A                  ->    infty        
  0.0572       3 (B2) A                  ->    infty        
  0.0089       2 (B2) A                  ->    infty        

              Summary of significant orbitals:

               Number  Type             Irrep      Energy
               23      Occ  Alpha       2 (B2)     -0.5443
               26      Occ  Alpha       3 (B2)     -0.4697
               28      Occ  Alpha       4 (B2)     -0.3419


 EOMIP-CCSD calculation:   CPU 6.55 s  wall 6.60 s

 Total ccman2 time:   CPU 1274.81 s  wall 3926.89 s


 --------------------------------------------------------------
             Orbital Energies (a.u.) and Symmetries
 --------------------------------------------------------------

 Alpha MOs, Restricted
 -- Occupied --                  
-104.84  -11.30  -11.25  -11.25  -11.25  -11.25  -11.24  -10.57
  1 A1    2 A1    3 A1    1 B1    4 A1    2 B1    5 A1    6 A1                 
 -8.035  -8.033  -8.033  -1.191  -1.120  -1.014  -1.003  -0.848
  7 A1    3 B1    1 B2    8 A1    9 A1    4 B1   10 A1    5 B1                 
 -0.813  -0.708  -0.652  -0.642  -0.601  -0.587  -0.544  -0.520
 11 A1   12 A1   13 A1    6 B1   14 A1    7 B1    2 B2    8 B1                 
 -0.510  -0.470  -0.456  -0.342  -0.337
 15 A1    3 B2    9 B1    4 B2    1 A2                                         
 -- Virtual --                   
  0.105   0.119   0.141   0.166   0.174   0.203   0.206   0.217
  2 A2    5 B2   16 A1   10 B1   17 A1   18 A1   11 B1   19 A1                 
  0.308   0.310   0.344   0.380   0.392   0.403   0.425   0.427
  6 B2   20 A1   12 B1   13 B1   21 A1   22 A1    7 B2   23 A1                 
  0.432   0.466   0.466   0.491   0.497   0.505   0.520   0.524
 14 B1    8 B2    3 A2   15 B1   24 A1   25 A1   16 B1    9 B2                 
  0.549   0.561   0.566   0.573   0.581   0.592   0.592   0.595
  4 A2   26 A1   17 B1   27 A1   10 B2   11 B2   18 B1   28 A1                 
  0.625   0.639   0.654   0.656   0.670   0.694   0.697   0.714
 29 A1   19 B1   30 A1    5 A2   12 B2   20 B1   31 A1   21 B1                 
  0.729   0.778   0.806   0.813   0.840   0.854   0.856   0.876
 32 A1   13 B2   22 B1   33 A1    6 A2   34 A1    7 A2   23 B1                 
  0.910   0.929   0.950   0.956   0.971   0.991   1.022   1.027
 14 B2   24 B1   35 A1    8 A2   36 A1   37 A1   25 B1   26 B1                 
  1.074   1.081   1.096   1.102   1.165   1.196   1.203   1.234
 15 B2   38 A1   39 A1   27 B1   16 B2    9 A2   17 B2   40 A1                 
  1.245   1.266   1.269   1.291   1.317   1.338   1.378   1.386
 28 B1   18 B2   41 A1   10 A2   42 A1   43 A1   29 B1   44 A1                 
  1.400   1.477   1.477   1.481   1.488   1.496   1.528   1.548
 30 B1   45 A1   19 B2   31 B1   11 A2   32 B1   33 B1   20 B2                 
  1.548   1.572   1.581   1.610   1.614   1.665   1.708   1.721
 46 A1   34 B1   12 A2   47 A1   35 B1   48 A1   49 A1   36 B1                 
  1.744   1.754   1.789   1.932   1.999   2.098   2.130   2.165
 21 B2   50 A1   13 A2   51 A1   37 B1   52 A1   38 B1   53 A1                 
  2.244   2.250   2.254   2.268   2.304   2.317   2.356   2.367
 22 B2   14 A2   39 B1   54 A1   55 A1   23 B2   40 B1   56 A1                 
  2.379   2.407   2.424   2.430   2.434   2.448   2.455   2.458
 15 A2   24 B2   25 B2   41 B1   57 A1   42 B1   16 A2   58 A1                 
  2.506   2.543   2.558   2.578   2.617   2.633   2.668   2.679
 26 B2   17 A2   43 B1   27 B2   59 A1   44 B1   28 B2   60 A1                 
  2.688   2.699   2.721   2.760   2.785   2.797   2.814   2.852
 18 A2   61 A1   45 B1   62 A1   46 B1   63 A1   29 B2   30 B2                 
  2.862   2.874   2.912   2.942   2.959   2.994   3.019   3.022
 47 B1   64 A1   48 B1   19 A2   31 B2   32 B2   33 B2   65 A1                 
  3.035   3.061   3.090   3.109   3.119   3.142   3.177   3.201
 49 B1   20 A2   21 A2   66 A1   50 B1   67 A1   51 B1   34 B2                 
  3.230   3.243   3.243   3.270   3.292   3.302   3.341   3.354
 22 A2   35 B2   68 A1   36 B2   52 B1   69 A1   53 B1   70 A1                 
  3.367   3.373   3.382   3.395   3.407   3.425   3.436   3.449
 23 A2   54 B1   71 A1   72 A1   55 B1   73 A1   24 A2   74 A1                 
  3.459   3.470   3.500   3.544   3.572   3.585   3.619   3.629
 25 A2   37 B2   56 B1   38 B2   57 B1   75 A1   26 A2   76 A1                 
  3.643   3.671   3.675   3.677   3.682   3.721   3.742   3.742
 39 B2   27 A2   40 B2   58 B1   59 B1   41 B2   77 A1   60 B1                 
  3.787   3.811   3.895   3.954   3.957   3.972   3.998   4.055
 28 A2   78 A1   79 A1   29 A2   61 B1   80 A1   42 B2   43 B2                 
  4.059   4.063   4.072   4.104   4.109   4.128   4.132   4.133
 30 A2   81 A1   62 B1   63 B1   82 A1   44 B2   83 A1   31 A2                 
  4.162   4.178   4.198   4.236   4.242   4.332   4.351   4.367
 64 B1   45 B2   32 A2   65 B1   84 A1   85 A1   66 B1   33 A2                 
  4.395   4.433   4.451   4.472   4.475   4.491   4.499   4.541
 46 B2   86 A1   67 B1   87 A1   47 B2   68 B1   88 A1   69 B1                 
  4.585   4.587   4.628   4.636   4.639   4.642   4.665   4.679
 89 A1   34 A2   48 B2   70 B1   35 A2   49 B2   90 A1   71 B1                 
  4.715   4.799   4.852   4.988   5.005   5.008   5.035   5.064
 91 A1   92 A1   72 B1   93 A1   50 B2   94 A1   51 B2   73 B1                 
  5.088   5.112   5.120   5.185   5.234   5.285   5.317   5.343
 36 A2   37 A2   74 B1   95 A1   52 B2   75 B1   96 A1   38 A2                 
  5.373   5.421   5.469   5.506   5.566   5.691   5.848   5.857
 76 B1   97 A1   98 A1   77 B1   78 B1   53 B2   99 A1   79 B1                 
  5.893   6.063   6.193   6.256   6.358   6.416   6.555   6.720
100 A1  101 A1   80 B1   81 B1   82 B1  102 A1  103 A1  104 A1                 
  7.095   8.985  12.141  13.118  13.316  13.416  15.729
 83 B1  105 A1  106 A1   84 B1   85 B1  107 A1  108 A1                         

 Beta MOs, Restricted
 -- Occupied --                  
-104.84  -11.30  -11.25  -11.25  -11.25  -11.25  -11.24  -10.57
  1 A1    2 A1    3 A1    1 B1    4 A1    2 B1    5 A1    6 A1                 
 -8.035  -8.033  -8.033  -1.191  -1.120  -1.014  -1.003  -0.848
  7 A1    3 B1    1 B2    8 A1    9 A1    4 B1   10 A1    5 B1                 
 -0.813  -0.708  -0.652  -0.642  -0.601  -0.587  -0.544  -0.520
 11 A1   12 A1   13 A1    6 B1   14 A1    7 B1    2 B2    8 B1                 
 -0.510  -0.470  -0.456  -0.342  -0.337
 15 A1    3 B2    9 B1    4 B2    1 A2                                         
 -- Virtual --                   
  0.105   0.119   0.141   0.166   0.174   0.203   0.206   0.217
  2 A2    5 B2   16 A1   10 B1   17 A1   18 A1   11 B1   19 A1                 
  0.308   0.310   0.344   0.380   0.392   0.403   0.425   0.427
  6 B2   20 A1   12 B1   13 B1   21 A1   22 A1    7 B2   23 A1                 
  0.432   0.466   0.466   0.491   0.497   0.505   0.520   0.524
 14 B1    8 B2    3 A2   15 B1   24 A1   25 A1   16 B1    9 B2                 
  0.549   0.561   0.566   0.573   0.581   0.592   0.592   0.595
  4 A2   26 A1   17 B1   27 A1   10 B2   11 B2   18 B1   28 A1                 
  0.625   0.639   0.654   0.656   0.670   0.694   0.697   0.714
 29 A1   19 B1   30 A1    5 A2   12 B2   20 B1   31 A1   21 B1                 
  0.729   0.778   0.806   0.813   0.840   0.854   0.856   0.876
 32 A1   13 B2   22 B1   33 A1    6 A2   34 A1    7 A2   23 B1                 
  0.910   0.929   0.950   0.956   0.971   0.991   1.022   1.027
 14 B2   24 B1   35 A1    8 A2   36 A1   37 A1   25 B1   26 B1                 
  1.074   1.081   1.096   1.102   1.165   1.196   1.203   1.234
 15 B2   38 A1   39 A1   27 B1   16 B2    9 A2   17 B2   40 A1                 
  1.245   1.266   1.269   1.291   1.317   1.338   1.378   1.386
 28 B1   18 B2   41 A1   10 A2   42 A1   43 A1   29 B1   44 A1                 
  1.400   1.477   1.477   1.481   1.488   1.496   1.528   1.548
 30 B1   45 A1   19 B2   31 B1   11 A2   32 B1   33 B1   20 B2                 
  1.548   1.572   1.581   1.610   1.614   1.665   1.708   1.721
 46 A1   34 B1   12 A2   47 A1   35 B1   48 A1   49 A1   36 B1                 
  1.744   1.754   1.789   1.932   1.999   2.098   2.130   2.165
 21 B2   50 A1   13 A2   51 A1   37 B1   52 A1   38 B1   53 A1                 
  2.244   2.250   2.254   2.268   2.304   2.317   2.356   2.367
 22 B2   14 A2   39 B1   54 A1   55 A1   23 B2   40 B1   56 A1                 
  2.379   2.407   2.424   2.430   2.434   2.448   2.455   2.458
 15 A2   24 B2   25 B2   41 B1   57 A1   42 B1   16 A2   58 A1                 
  2.506   2.543   2.558   2.578   2.617   2.633   2.668   2.679
 26 B2   17 A2   43 B1   27 B2   59 A1   44 B1   28 B2   60 A1                 
  2.688   2.699   2.721   2.760   2.785   2.797   2.814   2.852
 18 A2   61 A1   45 B1   62 A1   46 B1   63 A1   29 B2   30 B2                 
  2.862   2.874   2.912   2.942   2.959   2.994   3.019   3.022
 47 B1   64 A1   48 B1   19 A2   31 B2   32 B2   33 B2   65 A1                 
  3.035   3.061   3.090   3.109   3.119   3.142   3.177   3.201
 49 B1   20 A2   21 A2   66 A1   50 B1   67 A1   51 B1   34 B2                 
  3.230   3.243   3.243   3.270   3.292   3.302   3.341   3.354
 22 A2   35 B2   68 A1   36 B2   52 B1   69 A1   53 B1   70 A1                 
  3.367   3.373   3.382   3.395   3.407   3.425   3.436   3.449
 23 A2   54 B1   71 A1   72 A1   55 B1   73 A1   24 A2   74 A1                 
  3.459   3.470   3.500   3.544   3.572   3.585   3.619   3.629
 25 A2   37 B2   56 B1   38 B2   57 B1   75 A1   26 A2   76 A1                 
  3.643   3.671   3.675   3.677   3.682   3.721   3.742   3.742
 39 B2   27 A2   40 B2   58 B1   59 B1   41 B2   77 A1   60 B1                 
  3.787   3.811   3.895   3.954   3.957   3.972   3.998   4.055
 28 A2   78 A1   79 A1   29 A2   61 B1   80 A1   42 B2   43 B2                 
  4.059   4.063   4.072   4.104   4.109   4.128   4.132   4.133
 30 A2   81 A1   62 B1   63 B1   82 A1   44 B2   83 A1   31 A2                 
  4.162   4.178   4.198   4.236   4.242   4.332   4.351   4.367
 64 B1   45 B2   32 A2   65 B1   84 A1   85 A1   66 B1   33 A2                 
  4.395   4.433   4.451   4.472   4.475   4.491   4.499   4.541
 46 B2   86 A1   67 B1   87 A1   47 B2   68 B1   88 A1   69 B1                 
  4.585   4.587   4.628   4.636   4.639   4.642   4.665   4.679
 89 A1   34 A2   48 B2   70 B1   35 A2   49 B2   90 A1   71 B1                 
  4.715   4.799   4.852   4.988   5.005   5.008   5.035   5.064
 91 A1   92 A1   72 B1   93 A1   50 B2   94 A1   51 B2   73 B1                 
  5.088   5.112   5.120   5.185   5.234   5.285   5.317   5.343
 36 A2   37 A2   74 B1   95 A1   52 B2   75 B1   96 A1   38 A2                 
  5.373   5.421   5.469   5.506   5.566   5.691   5.848   5.857
 76 B1   97 A1   98 A1   77 B1   78 B1   53 B2   99 A1   79 B1                 
  5.893   6.063   6.193   6.256   6.358   6.416   6.555   6.720
100 A1  101 A1   80 B1   81 B1   82 B1  102 A1  103 A1  104 A1                 
  7.095   8.985  12.141  13.118  13.316  13.416  15.729
 83 B1  105 A1  106 A1   84 B1   85 B1  107 A1  108 A1                         
 --------------------------------------------------------------

          Ground-State Mulliken Net Atomic Charges

     Atom                 Charge (a.u.)
  ----------------------------------------
      1 H                     0.168630
      2 C                    -0.183661
      3 C                    -0.133514
      4 H                     0.159644
      5 C                    -0.162926
      6 H                     0.165601
      7 C                    -0.133514
      8 H                     0.159644
      9 C                    -0.183661
     10 H                     0.168630
     11 C                     0.113540
     12 Cl                   -0.138412
  ----------------------------------------
  Sum of atomic charges =    -0.000000

 -----------------------------------------------------------------
                    Cartesian Multipole Moments
 -----------------------------------------------------------------
    Charge (ESU x 10^10)
                 0.0000
    Dipole Moment (Debye)
         X      -0.0000      Y       0.0000      Z      -1.8218
       Tot       1.8218
    Quadrupole Moments (Debye-Ang)
        XX     -42.6481     XY       0.0000     YY     -52.2048
        XZ       0.0000     YZ       0.0000     ZZ     -45.6425
    Octopole Moments (Debye-Ang^2)
       XXX      -0.0000    XXY       0.0000    XYY       0.0000
       YYY       0.0000    XXZ      -0.9209    XYZ       0.0000
       YYZ       7.7859    XZZ      -0.0000    YZZ       0.0000
       ZZZ      -5.9817
    Hexadecapole Moments (Debye-Ang^3)
      XXXX    -270.1817   XXXY       0.0000   XXYY     -67.2832
      XYYY      -0.0000   YYYY     -60.9981   XXXZ       0.0000
      XXYZ       0.0000   XYYZ       0.0000   YYYZ       0.0000
      XXZZ    -183.1959   XYZZ       0.0000   YYZZ    -166.4642
      XZZZ       0.0000   YZZZ       0.0000   ZZZZ    -797.0040
 -----------------------------------------------------------------
Archival summary:
1\1\Annas-MacBook-Pro-3.local\SP\ProcedureUnspecified\BasisUnspecified\l165\SunSep2308:48:052018SunSep2308:48:052018\0\\#,ProcedureUnspecified,BasisUnspecified,\\0,1\Cl\C,1,1.7099\C,2,1.38842,1,120.862\H,3,1.08123,2,120.149,1,0,0\C,2,1.38842,1,120.862,3,180,0\H,5,1.08123,2,120.149,1,0,0\C,3,1.44434,2,120.655,1,180,0\H,7,1.08136,3,118.019,2,180,0\C,7,1.38538,3,121.28,2,0,0\H,9,1.07845,7,121.073,3,-180,0\C,9,1.38538,7,117.854,3,-0,0\H,11,1.08136,9,120.701,7,180,0\\HF=-689.707165\\@

 Total job time:  4222.69s(wall), 1567.60s(cpu) 
 Sun Sep 23 08:48:05 2018

        *************************************************************
        *                                                           *
        *  Thank you very much for using Q-Chem.  Have a nice day.  *
        *                                                           *
        *************************************************************


