Q-Chem Developer Version!
                  Welcome to Q-Chem
     A Quantum Leap Into The Future Of Chemistry


 Q-Chem 5.1, Q-Chem, Inc., Pleasanton, CA (2018)

 Yihan Shao,  Zhengting Gan,  E. Epifanovsky,  A. T. B. Gilbert,  M. Wormit,  
 J. Kussmann,  A. W. Lange,  A. Behn,  Jia Deng,  Xintian Feng,  D. Ghosh,  
 M. Goldey,  P. R. Horn,  L. D. Jacobson,  I. Kaliman,  T. Kus,  A. Landau,  
 Jie Liu,  E. I. Proynov,  R. M. Richard,  R. P. Steele,  E. J. Sundstrom,  
 H. L. Woodcock III,  P. M. Zimmerman,  D. Zuev,  B. Albrecht,  E. Alguire,  
 S. A. Baeppler,  D. Barton,  Z. Benda,  Y. A. Bernard,  E. J. Berquist,  
 K. B. Bravaya,  H. Burton,  D. Casanova,  Chun-Min Chang,  Yunqing Chen,  
 A. Chien,  K. D. Closser,  M. P. Coons,  S. Coriani,  S. Dasgupta,  
 A. L. Dempwolff,  M. Diedenhofen,  Hainam Do,  R. G. Edgar,  Po-Tung Fang,  
 S. Faraji,  S. Fatehi,  Qingguo Feng,  K. D. Fenk,  J. Fosso-Tande,  
 Qinghui Ge,  A. Ghysels,  G. Gidofalvi,  J. Gomes,  J. Gonthier,  A. Gunina,  
 D. Hait,  M. W. D. Hanson-Heine,  P. H. P. Harbach,  A. W. Hauser,  
 J. E. Herr,  E. G. Hohenstein,  Z. C. Holden,  Kerwin Hui,  B. C. Huynh,  
 T.-C. Jagau,  Hyunjun Ji,  B. Kaduk,  K. Khistyaev,  Jaehoon Kim,  
 P. Klunzinger,  K. Koh,  D. Kosenkov,  L. Koulias,  T. Kowalczyk,  
 C. M. Krauter,  A. Kunitsa,  Ka Un Lao,  A. Laurent,  K. V. Lawler,  
 Joonho Lee,  D. Lefrancois,  S. Lehtola,  D. S. Levine,  Yi-Pei Li,  
 You-Sheng Lin,  Fenglai Liu,  E. Livshits,  A. Luenser,  P. Manohar,  
 E. Mansoor,  S. F. Manzer,  Shan-Ping Mao,  Yuezhi Mao,  N. Mardirossian,  
 A. V. Marenich,  T. Markovich,  L. A. Martinez-Martinez,  S. A. Maurer,  
 N. J. Mayhall,  S. C. McKenzie,  J.-M. Mewes,  A. F. Morrison,  
 J. W. Mullinax,  K. Nanda,  T. S. Nguyen-Beck,  R. Olivares-Amaya,  
 J. A. Parkhill,  T. M. Perrine,  F. Plasser,  P. Pokhilko,  S. Prager,  
 A. Prociuk,  E. Ramos,  D. R. Rehn,  F. Rob,  M. Schneider,  N. Sergueev,  
 S. M. Sharada,  S. Sharma,  D. W. Small,  T. Stauch,  T. Stein,  
 Yu-Chuan Su,  A. J. W. Thom,  A. Tkatchenko,  T. Tsuchimochi,  N. M. Tubman,  
 L. Vogt,  M. L. Vidal,  O. Vydrov,  M. A. Watson,  J. Wenzel,  
 M. de Wergifosse,  T. A. Wesolowski,  A. White,  J. Witte,  A. Yamada,  
 Jun Yang,  K. Yao,  S. Yeganeh,  S. R. Yost,  Zhi-Qiang You,  A. Zech,  
 Igor Ying Zhang,  Xing Zhang,  Yan Zhao,  Ying Zhu,  B. R. Brooks,  
 G. K. L. Chan,  C. J. Cramer,  M. S. Gordon,  W. J. Hehre,  A. Klamt,  
 M. W. Schmidt,  C. D. Sherrill,  D. G. Truhlar,  A. Aspuru-Guzik,  R. Baer,  
 A. T. Bell,  N. A. Besley,  Jeng-Da Chai,  A. E. DePrince, III,  
 R. A. DiStasio Jr.,  A. Dreuw,  B. D. Dunietz,  T. R. Furlani,  
 Chao-Ping Hsu,  Yousung Jung,  Jing Kong,  D. S. Lambrecht,  WanZhen Liang,  
 C. Ochsenfeld,  V. A. Rassolov,  L. V. Slipchenko,  J. E. Subotnik,  
 T. Van Voorhis,  J. M. Herbert,  A. I. Krylov,  P. M. W. Gill,  M. Head-Gordon

 Contributors to earlier versions of Q-Chem not listed above: 
 R. D. Adamson,  B. Austin,  J. Baker,  G. J. O. Beran,  K. Brandhorst,  
 S. T. Brown,  E. F. C. Byrd,  A. K. Chakraborty,  C.-L. Cheng,  
 Siu Hung Chien,  D. M. Chipman,  D. L. Crittenden,  H. Dachsel,  
 R. J. Doerksen,  A. D. Dutoi,  L. Fusti-Molnar,  W. A. Goddard III,  
 A. Golubeva-Zadorozhnaya,  S. R. Gwaltney,  G. Hawkins,  A. Heyden,  
 S. Hirata,  G. Kedziora,  F. J. Keil,  C. Kelley,  Jihan Kim,  R. A. King,  
 R. Z. Khaliullin,  P. P. Korambath,  W. Kurlancheek,  A. M. Lee,  M. S. Lee,  
 S. V. Levchenko,  Ching Yeh Lin,  D. Liotard,  R. C. Lochan,  I. Lotan,  
 P. E. Maslen,  N. Nair,  D. P. O'Neill,  D. Neuhauser,  E. Neuscamman,  
 C. M. Oana,  R. Olson,  B. Peters,  R. Peverati,  P. A. Pieniazek,  
 Y. M. Rhee,  J. Ritchie,  M. A. Rohrdanz,  E. Rosta,  N. J. Russ,  
 H. F. Schaefer III,  N. E. Schultz,  N. Shenvi,  A. C. Simmonett,  A. Sodt,  
 D. Stuck,  K. S. Thanthiriwatte,  V. Vanovschi,  Tao Wang,  A. Warshel,  
 C. F. Williams,  Q. Wu,  X. Xu,  W. Zhang

 Please cite Q-Chem as follows:
 Y. Shao et al., Mol. Phys. 113, 184-215 (2015)
 DOI: 10.1080/00268976.2014.952696

 Q-Chem 5.1.1 for Intel X86 EM64T Linux

 Parts of Q-Chem use Armadillo 8.300.2 (Tropical Shenanigans).
 http://arma.sourceforge.net/

 Q-Chem begins on Thu Sep  6 00:36:51 2018  

node20
Host: 0

     Scratch files written to /scratch/krylov/qchem10540//
Core orbitals will be frozen
Input Ideriv = 1
Curr. Ideriv = -1
Max.  Ideriv = 1
EOM-IP/EA analytic gradients are available only for UHF references
Setting UNRESTRICTED=TRUE

Checking the input file for inconsistencies... 	...done.

--------------------------------------------------------------
User input:
--------------------------------------------------------------
$molecule
0 1
 H        -2.1400320233    0.0000000000    0.5090177858
 C        -1.2120583232    0.0000000000   -0.0442490642
 C        -1.2042956497    0.0000000000   -1.4361358281
 H        -2.1437187877    0.0000000000   -1.9716770234
 C         0.0000000000    0.0000000000   -2.1351330277
 H         0.0000000000    0.0000000000   -3.2159870334
 C         1.2042956497    0.0000000000   -1.4361358281
 H         2.1437187877    0.0000000000   -1.9716770234
 C         1.2120583232    0.0000000000   -0.0442490642
 H         2.1400320233    0.0000000000    0.5090177858
 C         0.0000000000    0.0000000000    0.6386615242
 Cl        0.0000000000    0.0000000000    2.3695929760
$end

$rem
   BASIS  = cc-pVTZ
   JOB_TYPE  =  OPT
   METHOD  =  EOM-CCSD
   SCF_CONVERGENCE  =  8
   IP_STATES = [0,0,0,1]
   CC_STATE_TO_OPT = [4,1]
   CC_MEMORY = 80000   
! use SP code 
  cc_single_prec=1
  eom_single_prec=1
  cc_sp_dm = 1
  cc_sp_t_conv = 4
  cc_sp_e_conv = 6
  cc_erase_dp_integrals = 1
$end

--------------------------------------------------------------
 ----------------------------------------------------------------
             Standard Nuclear Orientation (Angstroms)
    I     Atom           X                Y                Z
 ----------------------------------------------------------------
    1      H      -2.1400320233     0.0000000000     0.3814604176
    2      C      -1.2120583232     0.0000000000    -0.1718064324
    3      C      -1.2042956497     0.0000000000    -1.5636931963
    4      H      -2.1437187877     0.0000000000    -2.0992343916
    5      C      -0.0000000000     0.0000000000    -2.2626903959
    6      H      -0.0000000000     0.0000000000    -3.3435444016
    7      C       1.2042956497     0.0000000000    -1.5636931963
    8      H       2.1437187877     0.0000000000    -2.0992343916
    9      C       1.2120583232    -0.0000000000    -0.1718064324
   10      H       2.1400320233    -0.0000000000     0.3814604176
   11      C       0.0000000000    -0.0000000000     0.5111041560
   12      Cl      0.0000000000    -0.0000000000     2.2420356078
 ----------------------------------------------------------------
 Molecular Point Group                 C2v   NOp =  4
 Largest Abelian Subgroup              C2v   NOp =  4
 Nuclear Repulsion Energy =   316.4076139427 hartrees
 There are       29 alpha and       29 beta electrons
 Requested basis set is cc-pVTZ
 There are 102 shells and 284 basis functions
MEM_TOTAL is adjusted to CC_MEMORY + MEM_STATIC!
 Total memory of 80192MB is distributed as follows: 
   QALLOC including MEM_STATIC uses 192MB
   MEM_STATIC is set to 192MB
   CCMAN JOB total memory use is  80000MB
 Warning: actual memory use might exceed 80192MB

 Total QAlloc Memory Limit    192 MB
 Mega-Array Size       188 MB
 MEM_STATIC part       192 MB
 A cutoff of  1.0D-14 yielded   4992 shell pairs
 There are     39220 function pairs (     51259 Cartesian)

 -------------------------------------------------------
 OpenMP Integral Computing Module                       
 Release: version 1.0, May 2013, Q-Chem Inc. Pittsburgh 
 -------------------------------------------------------
 Integral Job Info:
 Integral job number is                      11
 Integral operator is                         1
 short-range coefficients                     0
 long-range coefficients              100000000
 Omega coefficients                           0
 if combine SR and LR in K                    0
 Integral screening is                        0
 Integral computing path is                   2
 max size of driver memory is            800000
 size of driver memory is                776718
 size of scratch memory is             26349924
 max col of scratch BK array              10000
 max len of scratch array in speh3          662
 max len of scratch index in speh4           32
 max int batch size is                      520
 min int batch size is                       52
 fixed nKL is                                52
 max L of basis functions is                  3
 order of int derivative is                   0
 number of shells is                        102
 number of basis is                         324
 number of cartesian basis is               324
 number of contracted shell pairs          4992
 number of primitive shell pairs          17918
 maxK2 (contraction) of shell pair          121
 max number of K2 of shell pair               1
 max number of CS2 of shell pair            618
 max number of PS2 of shell pair           2184
 mem total for path MDJ                  647656
 -------------------------------------------------------
 Smallest overlap matrix eigenvalue = 3.80E-05

 Scale SEOQF with 1.000000e-01/1.000000e+00/1.000000e-01

 Standard Electronic Orientation quadrupole field applied
 Nucleus-field energy     =    -0.0000000161 hartrees
 Guess from superposition of atomic densities
 Warning:  Energy on first SCF cycle will be non-variational
 SAD guess density has 58.000000 electrons

 -----------------------------------------------------------------------
  General SCF calculation program by
  Eric Jon Sundstrom, Paul Horn, Yuezhi Mao, Dmitri Zuev, Alec White,
  David Stuck, Shaama M.S., Shane Yost, Joonho Lee, David Small,
  Daniel Levine, Susi Lehtola, Hugh Burton, Evgeny Epifanovsky
 -----------------------------------------------------------------------
 Hartree-Fock
 using 8 threads for integral computing
 -------------------------------------------------------
 OpenMP Integral computing Module                
 Release: version 2.0, May 2017, Q-Chem Inc. Pleasanton 
 -------------------------------------------------------
 A unrestricted SCF calculation will be
 performed using DIIS
 SCF converges when DIIS error is below 1.0e-08
 ---------------------------------------
  Cycle       Energy         DIIS error
 ---------------------------------------
    1    -692.4587534000      1.64e-02  
    2    -689.6334209522      1.18e-03  
    3    -689.7017059176      5.31e-04  
    4    -689.7119932254      2.33e-04  
    5    -689.7147430289      4.32e-05  
    6    -689.7148439397      1.30e-05  
    7    -689.7148601358      4.70e-06  
    8    -689.7148628816      1.99e-06  
    9    -689.7148634868      7.74e-07  
   10    -689.7148635790      3.63e-07  
   11    -689.7148636142      1.54e-07  
   12    -689.7148636189      3.69e-08  
   13    -689.7148636192      9.28e-09  Convergence criterion met
 ---------------------------------------
 SCF time:   CPU 442.73s  wall 56.00s 
<S^2> =         -0.000000000
 SCF   energy in the final basis set =     -689.7148636192
 Total energy in the final basis set =     -689.7148636192


 ------------------------------------------------------------------------------

   CCMAN2: suite of methods based on coupled cluster
           and equation of motion theories.

   Components:
   * libvmm-1.3-trunk
     by Evgeny Epifanovsky, Ilya Kaliman.
   * libtensor-2.5-trunk
     by Evgeny Epifanovsky, Michael Wormit, Dmitry Zuev, Sam Manzer, 
        Ilya Kaliman.
   * libcc-2.5-trunk
     by Evgeny Epifanovsky, Arik Landau, Tomasz Kus, Kirill Khistyaev, 
        Dmitry Zuev, Prashant Manohar, Xintian Feng, Anna Krylov, 
        Matthew Goldey, Alec White, Thomas Jagau, Kaushik Nanda, 
        Anastasia Gunina, Alexander Kunitsa, Joonho Lee.

   CCMAN original authors:
   Anna I. Krylov, C. David Sherrill, Steven R. Gwaltney,
   Edward F. C. Byrd (2000)
   Sergey V. Levchenko, Lyudmila V. Slipchenko, Tao Wang,
   Ana-Maria C. Cristian (2003)
   Piotr A. Pieniazek, C. Melania Oana, Evgeny Epifanovsky (2007)
   Prashant Manohar (2009)

 ------------------------------------------------------------------------------


 Allocating and initializing 80000MB of RAM...
 Calculation will run on 8 cores.


 Alpha MOs, Unrestricted
 -- Occupied --                  
-104.84  -11.30  -11.25  -11.25  -11.25  -11.25  -11.24  -10.56
  1 A1    2 A1    3 A1    1 B1    4 A1    2 B1    5 A1    6 A1                 
 -8.030  -8.028  -8.028  -1.191  -1.120  -1.032  -0.996  -0.846
  7 A1    3 B1    1 B2    8 A1    9 A1    4 B1   10 A1    5 B1                 
 -0.820  -0.712  -0.648  -0.647  -0.603  -0.589  -0.545  -0.517
 11 A1   12 A1   13 A1    6 B1    7 B1   14 A1    2 B2    8 B1                 
 -0.511  -0.470  -0.454  -0.352  -0.335
 15 A1    3 B2    9 B1    1 A2    4 B2                                         
 -- Virtual --                   
  0.114   0.115   0.139   0.165   0.174   0.203   0.206   0.216
  2 A2    5 B2   16 A1   10 B1   17 A1   18 A1   11 B1   19 A1                 
  0.311   0.313   0.346   0.379   0.397   0.400   0.421   0.434
 20 A1    6 B2   12 B1   13 B1   21 A1   22 A1    7 B2   23 A1                 
  0.438   0.460   0.468   0.490   0.499   0.504   0.518   0.526
 14 B1    3 A2    8 B2   15 B1   24 A1   25 A1   16 B1    9 B2                 
  0.551   0.553   0.574   0.576   0.580   0.589   0.592   0.598
  4 A2   26 A1   27 A1   10 B2   17 B1   18 B1   11 B2   28 A1                 
  0.625   0.640   0.658   0.660   0.672   0.691   0.698   0.726
 29 A1   19 B1   30 A1    5 A2   12 B2   31 A1   20 B1   21 B1                 
  0.731   0.786   0.813   0.822   0.846   0.848   0.861   0.883
 32 A1   13 B2   22 B1   33 A1    6 A2    7 A2   34 A1   23 B1                 
  0.920   0.931   0.957   0.961   0.969   1.006   1.021   1.026
 14 B2   24 B1    8 A2   35 A1   36 A1   37 A1   25 B1   26 B1                 
  1.073   1.075   1.095   1.103   1.172   1.203   1.206   1.228
 15 B2   38 A1   39 A1   27 B1   16 B2   17 B2    9 A2   40 A1                 
  1.253   1.265   1.273   1.285   1.323   1.347   1.373   1.395
 28 B1   41 A1   18 B2   10 A2   42 A1   43 A1   29 B1   44 A1                 
  1.408   1.482   1.490   1.491   1.496   1.500   1.530   1.554
 30 B1   19 B2   31 B1   45 A1   32 B1   11 A2   33 B1   46 A1                 
  1.558   1.578   1.579   1.600   1.614   1.654   1.702   1.736
 20 B2   34 B1   12 A2   47 A1   35 B1   48 A1   49 A1   36 B1                 
  1.744   1.746   1.798   1.932   1.997   2.108   2.131   2.188
 50 A1   21 B2   13 A2   51 A1   37 B1   52 A1   38 B1   53 A1                 
  2.241   2.245   2.253   2.272   2.302   2.318   2.361   2.362
 39 B1   22 B2   14 A2   54 A1   55 A1   23 B2   40 B1   56 A1                 
  2.376   2.412   2.428   2.431   2.436   2.444   2.456   2.470
 15 A2   24 B2   25 B2   41 B1   57 A1   42 B1   16 A2   58 A1                 
  2.510   2.552   2.571   2.580   2.624   2.639   2.659   2.690
 26 B2   17 A2   43 B1   27 B2   59 A1   44 B1   28 B2   60 A1                 
  2.695   2.701   2.726   2.761   2.775   2.827   2.829   2.843
 18 A2   61 A1   45 B1   62 A1   46 B1   63 A1   29 B2   47 B1                 
  2.859   2.867   2.913   2.950   2.950   2.995   3.020   3.029
 30 B2   64 A1   48 B1   19 A2   31 B2   32 B2   33 B2   49 B1                 
  3.034   3.045   3.099   3.106   3.128   3.140   3.201   3.215
 65 A1   20 A2   21 A2   66 A1   67 A1   50 B1   51 B1   34 B2                 
  3.224   3.234   3.252   3.258   3.314   3.320   3.350   3.367
 22 A2   68 A1   35 B2   36 B2   52 B1   69 A1   53 B1   23 A2                 
  3.371   3.374   3.381   3.399   3.414   3.427   3.428   3.452
 70 A1   54 B1   71 A1   72 A1   73 A1   24 A2   55 B1   74 A1                 
  3.457   3.473   3.517   3.550   3.572   3.603   3.638   3.643
 25 A2   37 B2   56 B1   38 B2   57 B1   75 A1   26 A2   76 A1                 
  3.647   3.669   3.671   3.679   3.685   3.724   3.744   3.753
 39 B2   58 B1   40 B2   27 A2   59 B1   41 B2   60 B1   77 A1                 
  3.788   3.832   3.901   3.955   3.969   3.978   3.996   4.071
 28 A2   78 A1   79 A1   80 A1   61 B1   29 A2   42 B2   30 A2                 
  4.075   4.094   4.117   4.123   4.131   4.135   4.143   4.148
 81 A1   43 B2   62 B1   63 B1   82 A1   44 B2   31 A2   83 A1                 
  4.175   4.181   4.194   4.244   4.249   4.352   4.372   4.375
 64 B1   45 B2   32 A2   84 A1   65 B1   85 A1   66 B1   46 B2                 
  4.406   4.442   4.450   4.490   4.502   4.506   4.522   4.538
 33 A2   86 A1   67 B1   47 B2   68 B1   87 A1   88 A1   69 B1                 
  4.603   4.612   4.650   4.658   4.671   4.672   4.694   4.700
 89 A1   34 A2   35 A2   48 B2   90 A1   70 B1   49 B2   71 B1                 
  4.723   4.809   4.883   4.996   5.026   5.048   5.055   5.079
 91 A1   92 A1   72 B1   93 A1   50 B2   94 A1   51 B2   73 B1                 
  5.095   5.105   5.134   5.219   5.242   5.308   5.336   5.367
 74 B1   36 A2   37 A2   95 A1   52 B2   75 B1   96 A1   38 A2                 
  5.375   5.422   5.489   5.517   5.592   5.726   5.881   5.909
 76 B1   97 A1   98 A1   77 B1   78 B1   53 B2   99 A1   79 B1                 
  5.922   6.078   6.272   6.303   6.420   6.428   6.487   6.767
100 A1  101 A1   80 B1   81 B1   82 B1  102 A1  103 A1  104 A1                 
  7.183   8.993  12.531  13.184  13.467  13.757  16.090
 83 B1  105 A1  106 A1   84 B1  107 A1   85 B1  108 A1                         

 Beta MOs, Unrestricted
 -- Occupied --                  
-104.84  -11.30  -11.25  -11.25  -11.25  -11.25  -11.24  -10.56
  1 A1    2 A1    3 A1    1 B1    4 A1    2 B1    5 A1    6 A1                 
 -8.030  -8.028  -8.028  -1.191  -1.120  -1.032  -0.996  -0.846
  7 A1    3 B1    1 B2    8 A1    9 A1    4 B1   10 A1    5 B1                 
 -0.820  -0.712  -0.648  -0.647  -0.603  -0.589  -0.545  -0.517
 11 A1   12 A1   13 A1    6 B1    7 B1   14 A1    2 B2    8 B1                 
 -0.511  -0.470  -0.454  -0.352  -0.335
 15 A1    3 B2    9 B1    1 A2    4 B2                                         
 -- Virtual --                   
  0.114   0.115   0.139   0.165   0.174   0.203   0.206   0.216
  2 A2    5 B2   16 A1   10 B1   17 A1   18 A1   11 B1   19 A1                 
  0.311   0.313   0.346   0.379   0.397   0.400   0.421   0.434
 20 A1    6 B2   12 B1   13 B1   21 A1   22 A1    7 B2   23 A1                 
  0.438   0.460   0.468   0.490   0.499   0.504   0.518   0.526
 14 B1    3 A2    8 B2   15 B1   24 A1   25 A1   16 B1    9 B2                 
  0.551   0.553   0.574   0.576   0.580   0.589   0.592   0.598
  4 A2   26 A1   27 A1   10 B2   17 B1   18 B1   11 B2   28 A1                 
  0.625   0.640   0.658   0.660   0.672   0.691   0.698   0.726
 29 A1   19 B1   30 A1    5 A2   12 B2   31 A1   20 B1   21 B1                 
  0.731   0.786   0.813   0.822   0.846   0.848   0.861   0.883
 32 A1   13 B2   22 B1   33 A1    6 A2    7 A2   34 A1   23 B1                 
  0.920   0.931   0.957   0.961   0.969   1.006   1.021   1.026
 14 B2   24 B1    8 A2   35 A1   36 A1   37 A1   25 B1   26 B1                 
  1.073   1.075   1.095   1.103   1.172   1.203   1.206   1.228
 15 B2   38 A1   39 A1   27 B1   16 B2   17 B2    9 A2   40 A1                 
  1.253   1.265   1.273   1.285   1.323   1.347   1.373   1.395
 28 B1   41 A1   18 B2   10 A2   42 A1   43 A1   29 B1   44 A1                 
  1.408   1.482   1.490   1.491   1.496   1.500   1.530   1.554
 30 B1   19 B2   31 B1   45 A1   32 B1   11 A2   33 B1   46 A1                 
  1.558   1.578   1.579   1.600   1.614   1.654   1.702   1.736
 20 B2   34 B1   12 A2   47 A1   35 B1   48 A1   49 A1   36 B1                 
  1.744   1.746   1.798   1.932   1.997   2.108   2.131   2.188
 50 A1   21 B2   13 A2   51 A1   37 B1   52 A1   38 B1   53 A1                 
  2.241   2.245   2.253   2.272   2.302   2.318   2.361   2.362
 39 B1   22 B2   14 A2   54 A1   55 A1   23 B2   40 B1   56 A1                 
  2.376   2.412   2.428   2.431   2.436   2.444   2.456   2.470
 15 A2   24 B2   25 B2   41 B1   57 A1   42 B1   16 A2   58 A1                 
  2.510   2.552   2.571   2.580   2.624   2.639   2.659   2.690
 26 B2   17 A2   43 B1   27 B2   59 A1   44 B1   28 B2   60 A1                 
  2.695   2.701   2.726   2.761   2.775   2.827   2.829   2.843
 18 A2   61 A1   45 B1   62 A1   46 B1   63 A1   29 B2   47 B1                 
  2.859   2.867   2.913   2.950   2.950   2.995   3.020   3.029
 30 B2   64 A1   48 B1   19 A2   31 B2   32 B2   33 B2   49 B1                 
  3.034   3.045   3.099   3.106   3.128   3.140   3.201   3.215
 65 A1   20 A2   21 A2   66 A1   67 A1   50 B1   51 B1   34 B2                 
  3.224   3.234   3.252   3.258   3.314   3.320   3.350   3.367
 22 A2   68 A1   35 B2   36 B2   52 B1   69 A1   53 B1   23 A2                 
  3.371   3.374   3.381   3.399   3.414   3.427   3.428   3.452
 70 A1   54 B1   71 A1   72 A1   73 A1   24 A2   55 B1   74 A1                 
  3.457   3.473   3.517   3.550   3.572   3.603   3.638   3.643
 25 A2   37 B2   56 B1   38 B2   57 B1   75 A1   26 A2   76 A1                 
  3.647   3.669   3.671   3.679   3.685   3.724   3.744   3.753
 39 B2   58 B1   40 B2   27 A2   59 B1   41 B2   60 B1   77 A1                 
  3.788   3.832   3.901   3.955   3.969   3.978   3.996   4.071
 28 A2   78 A1   79 A1   80 A1   61 B1   29 A2   42 B2   30 A2                 
  4.075   4.094   4.117   4.123   4.131   4.135   4.143   4.148
 81 A1   43 B2   62 B1   63 B1   82 A1   44 B2   31 A2   83 A1                 
  4.175   4.181   4.194   4.244   4.249   4.352   4.372   4.375
 64 B1   45 B2   32 A2   84 A1   65 B1   85 A1   66 B1   46 B2                 
  4.406   4.442   4.450   4.490   4.502   4.506   4.522   4.538
 33 A2   86 A1   67 B1   47 B2   68 B1   87 A1   88 A1   69 B1                 
  4.603   4.612   4.650   4.658   4.671   4.672   4.694   4.700
 89 A1   34 A2   35 A2   48 B2   90 A1   70 B1   49 B2   71 B1                 
  4.723   4.809   4.883   4.996   5.026   5.048   5.055   5.079
 91 A1   92 A1   72 B1   93 A1   50 B2   94 A1   51 B2   73 B1                 
  5.095   5.105   5.134   5.219   5.242   5.308   5.336   5.367
 74 B1   36 A2   37 A2   95 A1   52 B2   75 B1   96 A1   38 A2                 
  5.375   5.422   5.489   5.517   5.592   5.726   5.881   5.909
 76 B1   97 A1   98 A1   77 B1   78 B1   53 B2   99 A1   79 B1                 
  5.922   6.078   6.272   6.303   6.420   6.428   6.487   6.767
100 A1  101 A1   80 B1   81 B1   82 B1  102 A1  103 A1  104 A1                 
  7.183   8.993  12.531  13.184  13.467  13.757  16.090
 83 B1  105 A1  106 A1   84 B1  107 A1   85 B1  108 A1                         

 Occupation and symmetry of molecular orbitals

 Point group: C2v (4 irreducible representations).

                           A1   A2   B1   B2    All 
 ----------------------------------------------------
 All molecular orbitals:
  - Alpha                  108  38   85   53    284 
  - Beta                   108  38   85   53    284 
 ----------------------------------------------------
 Alpha orbitals:
  - Frozen occupied        7    0    3    1     11  
  - Active occupied        8    1    6    3     18  
  - Active virtual         93   37   76   49    255 
  - Frozen virtual         0    0    0    0     0   
 ----------------------------------------------------
 Beta orbitals:
  - Frozen occupied        7    0    3    1     11  
  - Active occupied        8    1    6    3     18  
  - Active virtual         93   37   76   49    255 
  - Frozen virtual         0    0    0    0     0   
 ----------------------------------------------------

 Import integrals:   CPU 0.00 s  wall 0.00 s

 Import integrals:   CPU 2089.87 s  wall 294.47 s

 MP2 amplitudes:   CPU 8.30 s  wall 1.63 s

Running a single precision version
I will use integrals, stored in single precision format
           CCSD T amplitudes will be solved using DIIS.

           Start     Size      MaxIter   EConv     TConv     
           3         7         100       1.00e-06  1.00e-04  
 ------------------------------------------------------------------------------
           Energy (a.u.)   Ediff      Tdiff       Comment
 ------------------------------------------------------------------------------
          -690.84797879                           
     1    -690.84259518   5.38e-03   1.04e+00     
     2    -690.87597350   3.34e-02   1.43e-01     
     3    -690.87495886   1.01e-03   4.97e-02     
     4    -690.87781418   2.86e-03   1.42e-02     Switched to DIIS steps.
     5    -690.87871743   9.03e-04   1.10e-02     
     6    -690.87874647   2.90e-05   1.99e-03     
     7    -690.87873231   1.42e-05   1.01e-03     
     8    -690.87873109   1.22e-06   1.96e-04     
     9    -690.87873204   9.55e-07   7.25e-05     
 ------------------------------------------------------------------------------
          -690.87873204                           CCSD T converged.

End of single precision
No iterations in double precision will be done
 SCF energy                 = -689.71486362
 MP2 energy                 = -690.84798024
 CCSD correlation energy     =   -1.16386830
 CCSD total energy           = -690.87873192

 CCSD  T1^2 = 0.0074  T2^2 = 0.4259  Leading amplitudes:

 Amplitude    Orbitals with energies
 -0.0205       1 (A2) A                  ->    3 (A2) A                   
              -0.3516                          0.4603                     
 -0.0205       1 (A2) B                  ->    3 (A2) B                   
              -0.3516                          0.4603                     
  0.0173       4 (B2) A                  ->    8 (B2) A                   
              -0.3355                          0.4678                     
  0.0173       4 (B2) B                  ->    8 (B2) B                   
              -0.3355                          0.4678                     

 Amplitude    Orbitals with energies
 -0.0802       1 (A2) A      1 (A2) B    ->    2 (A2) A      2 (A2) B     
              -0.3516       -0.3516            0.1138        0.1138       
  0.0802       1 (A2) A      1 (A2) B    ->    2 (A2) B      2 (A2) A     
              -0.3516       -0.3516            0.1138        0.1138       
  0.0802       1 (A2) B      1 (A2) A    ->    2 (A2) A      2 (A2) B     
              -0.3516       -0.3516            0.1138        0.1138       
 -0.0802       1 (A2) B      1 (A2) A    ->    2 (A2) B      2 (A2) A     
              -0.3516       -0.3516            0.1138        0.1138       

 Computing CCSD intemediates for later calculations in single precision
 Finished.

 CCSD calculation:   CPU 1461.17 s  wall 212.33 s

 EOMEE-CCSD calculation:   CPU 63.87 s  wall 128.64 s

        Solving for EOMIP-CCSD B2 transitions.

Running a single precision version
      EOMIP-CCSD/MP2 right amplitudes will be solved using Davidson.
      Amplitudes will be solved using standard  algorithm
      Roots     MaxVec    MaxIter   Precond   Conv      Thresh    Shift    
      1         60        60        1         1.00e-06  1.00e-06  0.00e+00  
 ------------------------------------------------------------------------------
      Iter ConvRoots NVecs ResNorm Current eigenvalues (eV)
 ------------------------------------------------------------------------------
      0    0      1     1.01e-01   11.4220   
      1    0      2     3.02e-02   9.6019   
      2    0      3     8.62e-04   9.1457   
      3    0      4     8.71e-05   9.1270   
      4    0      5     1.87e-05   9.1243   
      5    0      6     2.34e-06   9.1236   
      6    1      7     5.12e-07   9.1237*  

     Davidson procedure converged

 EOMIP transition 1/B2
 Total energy = -690.54344042 a.u.  Excitation energy = 9.1237 eV.
 R1^2 = 0.9398  R2^2 = 0.0602  Res^2 = 5.12e-07
 Conv-d = yes

 Amplitude    Transitions between orbitals
 -0.9676       4 (B2) A                  ->    infty        
 -0.0600       3 (B2) A                  ->    infty        
  0.0059       2 (B2) A                  ->    infty        

              Summary of significant orbitals:

               Number  Type             Irrep      Energy
               23      Occ  Alpha       2 (B2)     -0.5452
               26      Occ  Alpha       3 (B2)     -0.4695
               29      Occ  Alpha       4 (B2)     -0.3355


Running a single precision version
      EOMIP-CCSD/MP2 left amplitudes will be solved using Davidson.
      Amplitudes will be solved using MOM  algorithm
      Roots     MaxVec    MaxIter   Precond   Conv      Thresh    Shift    
      1         60        60        1         1.00e-06  1.00e-06  0.00e+00  
 ------------------------------------------------------------------------------
      Iter ConvRoots NVecs ResNorm Current eigenvalues (eV)
 ------------------------------------------------------------------------------
      0    0      1     3.25e-03   9.1237   
      1    0      2     9.67e-04   9.1237   
      2    0      3     4.09e-05   9.1237   
      3    0      4     2.76e-06   9.1238   
      4    1      5     1.82e-07   9.1238*  

     Davidson procedure converged

Running a double precision version
           EOM amplitude response will be solved using DIIS.
           Start     Size      MaxIter   EConv     ZConv     
           3         7         100       1.00e-06  1.00e-06  
 ------------------------------------------------------------------------------
            Enorm      Zdiff       Comment
 ------------------------------------------------------------------------------
     1     9.50e-02   5.57e-02     
     2     3.25e-02   2.02e-02     
     3     1.58e-02   7.30e-03     
     4     4.97e-03   5.58e-03     Switched to DIIS steps.
     5     2.48e-03   1.12e-03     
     6     9.28e-04   4.92e-04     
     7     4.42e-04   9.51e-05     
     8     2.58e-04   3.10e-05     
     9     1.24e-04   1.61e-05     
    10     5.86e-05   5.43e-06     
    11     1.78e-05   1.34e-06     
    12     6.82e-06   7.76e-07     
    13     2.37e-06   4.14e-07     
    14     1.09e-06   2.76e-07     
    15     4.73e-07   1.66e-07     
 ------------------------------------------------------------------------------
                                   Amplitude response converged.

           Orbital response amplitudes will be solved using DIIS.
           Start     Size      MaxIter   EConv     LConv     
           3         7         100       1.00e-06  1.00e-06  
 ------------------------------------------------------------------------------
            Enorm      Ldiff       Comment
 ------------------------------------------------------------------------------
     1     9.20e-02   2.91e-03     
     2     6.09e-02   8.03e-03     
     3     7.92e-02   3.30e-02     
     4     1.76e-02   2.20e-02     Switched to DIIS steps.
     5     1.24e-02   4.53e-03     
     6     1.26e-02   9.23e-03     
     7     1.24e-02   2.57e-03     
     8     8.50e-03   1.66e-02     
     9     3.80e-03   5.01e-02     
    10     1.37e-03   2.22e-02     
    11     5.88e-04   3.80e-03     
    12     3.63e-04   6.29e-04     
    13     2.92e-04   4.88e-05     
    14     9.65e-05   6.21e-06     
    15     5.60e-05   1.27e-04     
    16     3.56e-05   5.54e-05     
    17     3.20e-05   4.49e-05     
    18     3.18e-05   1.97e-05     
    19     3.20e-05   2.80e-06     
    20     3.01e-05   3.29e-05     
    21     2.62e-05   9.52e-05     
    22     1.97e-05   9.24e-05     
    23     1.03e-05   8.77e-05     
    24     6.06e-06   4.32e-05     
    25     3.24e-06   1.24e-05     
    26     1.70e-06   5.86e-06     
    27     1.10e-06   2.20e-06     
    28     7.88e-07   9.38e-07     
 ------------------------------------------------------------------------------
                                   Orbital response converged.

 EOMIP-CCSD calculation:   CPU 3803.48 s  wall 1987.64 s

 Transferring MO TPDM to AO TPDM
 Transferring g2_o1o1o1o1
 Transferring g2_o1o1o1v1
 Transferring g2_o1o1v1v1
 Transferring g2_o1v1o1v1
 Transferring g2_o1v1v1v1
 Transferring g2_v1v1v1v1
 Adding separable TPDM
 Computing TPDM gradient
 --------------------------------------------------------
 2e gradient
  Atom          X               Y               Z
 --------------------------------------------------------
    1          4.576323        0.000000       -2.182192  
    2          7.455832        0.000000       -1.971005  
    3          6.335333       -0.000000        6.163012  
    4          4.128863       -0.000000        2.432175  
    5         -0.000000       -0.000000        8.965954  
    6         -0.000000       -0.000000        4.755350  
    7         -6.335333       -0.000000        6.163012  
    8         -4.128863       -0.000000        2.432175  
    9         -7.455832        0.000000       -1.971005  
   10         -4.576323        0.000000       -2.182192  
   11          0.000000        0.000000        2.975228  
   12          0.000000        0.000000      -25.580513  
 --------------------------------------------------------
 --------------------------------------------------------
 Final gradient
  Atom          X               Y               Z
 --------------------------------------------------------
    1          4.576323        0.000000       -2.182192  
    2          7.455832        0.000000       -1.971005  
    3          6.335333       -0.000000        6.163012  
    4          4.128863       -0.000000        2.432175  
    5         -0.000000       -0.000000        8.965954  
    6         -0.000000       -0.000000        4.755350  
    7         -6.335333       -0.000000        6.163012  
    8         -4.128863       -0.000000        2.432175  
    9         -7.455832        0.000000       -1.971005  
   10         -4.576323        0.000000       -2.182192  
   11          0.000000        0.000000        2.975228  
   12          0.000000        0.000000      -25.580513  
 --------------------------------------------------------
 Analytic gradient from two-electron contribution:   CPU 126011.58 s  wall 17538.03 s

 Total ccman2 time:   CPU 133504.01 s  wall 20176.89 s


 --------------------------------------------------------------
             Orbital Energies (a.u.) and Symmetries
 --------------------------------------------------------------

 Alpha MOs, Unrestricted
 -- Occupied --                  
-104.84  -11.30  -11.25  -11.25  -11.24  -10.56   -8.03  -11.25
  1 A1    2 A1    3 A1    4 A1    5 A1    6 A1    7 A1    1 B1                 
-11.248  -8.028  -8.028  -1.191  -1.120  -0.996  -0.820  -0.712
  2 B1    3 B1    1 B2    8 A1    9 A1   10 A1   11 A1   12 A1                 
 -0.648  -0.589  -0.511  -0.352  -1.032  -0.846  -0.647  -0.603
 13 A1   14 A1   15 A1    1 A2    4 B1    5 B1    6 B1    7 B1                 
 -0.517  -0.454  -0.545  -0.470  -0.335
  8 B1    9 B1    2 B2    3 B2    4 B2                                         
 -- Virtual --                   
  0.139   0.174   0.203   0.216   0.311   0.397   0.400   0.434
 16 A1   17 A1   18 A1   19 A1   20 A1   21 A1   22 A1   23 A1                 
  0.499   0.504   0.553   0.574   0.598   0.625   0.658   0.691
 24 A1   25 A1   26 A1   27 A1   28 A1   29 A1   30 A1   31 A1                 
  0.731   0.822   0.861   0.961   0.969   1.006   1.075   1.095
 32 A1   33 A1   34 A1   35 A1   36 A1   37 A1   38 A1   39 A1                 
  1.228   1.265   1.323   1.347   1.395   1.491   1.554   1.600
 40 A1   41 A1   42 A1   43 A1   44 A1   45 A1   46 A1   47 A1                 
  1.654   1.702   1.744   1.932   2.108   2.188   2.272   2.302
 48 A1   49 A1   50 A1   51 A1   52 A1   53 A1   54 A1   55 A1                 
  2.362   2.436   2.470   2.624   2.690   2.701   2.761   2.827
 56 A1   57 A1   58 A1   59 A1   60 A1   61 A1   62 A1   63 A1                 
  2.867   3.034   3.106   3.128   3.234   3.320   3.371   3.381
 64 A1   65 A1   66 A1   67 A1   68 A1   69 A1   70 A1   71 A1                 
  3.399   3.414   3.452   3.603   3.643   3.753   3.832   3.901
 72 A1   73 A1   74 A1   75 A1   76 A1   77 A1   78 A1   79 A1                 
  3.955   4.075   4.131   4.148   4.244   4.352   4.442   4.506
 80 A1   81 A1   82 A1   83 A1   84 A1   85 A1   86 A1   87 A1                 
  4.522   4.603   4.671   4.723   4.809   4.996   5.048   5.219
 88 A1   89 A1   90 A1   91 A1   92 A1   93 A1   94 A1   95 A1                 
  5.336   5.422   5.489   5.881   5.922   6.078   6.428   6.487
 96 A1   97 A1   98 A1   99 A1  100 A1  101 A1  102 A1  103 A1                 
  6.767   8.993  12.531  13.467  16.090   0.114   0.460   0.551
104 A1  105 A1  106 A1  107 A1  108 A1    2 A2    3 A2    4 A2                 
  0.660   0.846   0.848   0.957   1.206   1.285   1.500   1.579
  5 A2    6 A2    7 A2    8 A2    9 A2   10 A2   11 A2   12 A2                 
  1.798   2.253   2.376   2.456   2.552   2.695   2.950   3.045
 13 A2   14 A2   15 A2   16 A2   17 A2   18 A2   19 A2   20 A2                 
  3.099   3.224   3.367   3.427   3.457   3.638   3.679   3.788
 21 A2   22 A2   23 A2   24 A2   25 A2   26 A2   27 A2   28 A2                 
  3.978   4.071   4.143   4.194   4.406   4.612   4.650   5.105
 29 A2   30 A2   31 A2   32 A2   33 A2   34 A2   35 A2   36 A2                 
  5.134   5.367   0.165   0.206   0.346   0.379   0.438   0.490
 37 A2   38 A2   10 B1   11 B1   12 B1   13 B1   14 B1   15 B1                 
  0.518   0.580   0.589   0.640   0.698   0.726   0.813   0.883
 16 B1   17 B1   18 B1   19 B1   20 B1   21 B1   22 B1   23 B1                 
  0.931   1.021   1.026   1.103   1.253   1.373   1.408   1.490
 24 B1   25 B1   26 B1   27 B1   28 B1   29 B1   30 B1   31 B1                 
  1.496   1.530   1.578   1.614   1.736   1.997   2.131   2.241
 32 B1   33 B1   34 B1   35 B1   36 B1   37 B1   38 B1   39 B1                 
  2.361   2.431   2.444   2.571   2.639   2.726   2.775   2.843
 40 B1   41 B1   42 B1   43 B1   44 B1   45 B1   46 B1   47 B1                 
  2.913   3.029   3.140   3.201   3.314   3.350   3.374   3.428
 48 B1   49 B1   50 B1   51 B1   52 B1   53 B1   54 B1   55 B1                 
  3.517   3.572   3.669   3.685   3.744   3.969   4.117   4.123
 56 B1   57 B1   58 B1   59 B1   60 B1   61 B1   62 B1   63 B1                 
  4.175   4.249   4.372   4.450   4.502   4.538   4.672   4.700
 64 B1   65 B1   66 B1   67 B1   68 B1   69 B1   70 B1   71 B1                 
  4.883   5.079   5.095   5.308   5.375   5.517   5.592   5.909
 72 B1   73 B1   74 B1   75 B1   76 B1   77 B1   78 B1   79 B1                 
  6.272   6.303   6.420   7.183  13.184  13.757   0.115   0.313
 80 B1   81 B1   82 B1   83 B1   84 B1   85 B1    5 B2    6 B2                 
  0.421   0.468   0.526   0.576   0.592   0.672   0.786   0.920
  7 B2    8 B2    9 B2   10 B2   11 B2   12 B2   13 B2   14 B2                 
  1.073   1.172   1.203   1.273   1.482   1.558   1.746   2.245
 15 B2   16 B2   17 B2   18 B2   19 B2   20 B2   21 B2   22 B2                 
  2.318   2.412   2.428   2.510   2.580   2.659   2.829   2.859
 23 B2   24 B2   25 B2   26 B2   27 B2   28 B2   29 B2   30 B2                 
  2.950   2.995   3.020   3.215   3.252   3.258   3.473   3.550
 31 B2   32 B2   33 B2   34 B2   35 B2   36 B2   37 B2   38 B2                 
  3.647   3.671   3.724   3.996   4.094   4.135   4.181   4.375
 39 B2   40 B2   41 B2   42 B2   43 B2   44 B2   45 B2   46 B2                 
  4.490   4.658   4.694   5.026   5.055   5.242   5.726
 47 B2   48 B2   49 B2   50 B2   51 B2   52 B2   53 B2                         

 Beta MOs, Unrestricted
 -- Occupied --                  
-104.84  -11.30  -11.25  -11.25  -11.24  -10.56   -8.03  -11.25
  1 A1    2 A1    3 A1    4 A1    5 A1    6 A1    7 A1    1 B1                 
-11.248  -8.028  -8.028  -1.191  -1.120  -0.996  -0.820  -0.712
  2 B1    3 B1    1 B2    8 A1    9 A1   10 A1   11 A1   12 A1                 
 -0.648  -0.589  -0.511  -0.352  -1.032  -0.846  -0.647  -0.603
 13 A1   14 A1   15 A1    1 A2    4 B1    5 B1    6 B1    7 B1                 
 -0.517  -0.454  -0.545  -0.470  -0.335
  8 B1    9 B1    2 B2    3 B2    4 B2                                         
 -- Virtual --                   
  0.139   0.174   0.203   0.216   0.311   0.397   0.400   0.434
 16 A1   17 A1   18 A1   19 A1   20 A1   21 A1   22 A1   23 A1                 
  0.499   0.504   0.553   0.574   0.598   0.625   0.658   0.691
 24 A1   25 A1   26 A1   27 A1   28 A1   29 A1   30 A1   31 A1                 
  0.731   0.822   0.861   0.961   0.969   1.006   1.075   1.095
 32 A1   33 A1   34 A1   35 A1   36 A1   37 A1   38 A1   39 A1                 
  1.228   1.265   1.323   1.347   1.395   1.491   1.554   1.600
 40 A1   41 A1   42 A1   43 A1   44 A1   45 A1   46 A1   47 A1                 
  1.654   1.702   1.744   1.932   2.108   2.188   2.272   2.302
 48 A1   49 A1   50 A1   51 A1   52 A1   53 A1   54 A1   55 A1                 
  2.362   2.436   2.470   2.624   2.690   2.701   2.761   2.827
 56 A1   57 A1   58 A1   59 A1   60 A1   61 A1   62 A1   63 A1                 
  2.867   3.034   3.106   3.128   3.234   3.320   3.371   3.381
 64 A1   65 A1   66 A1   67 A1   68 A1   69 A1   70 A1   71 A1                 
  3.399   3.414   3.452   3.603   3.643   3.753   3.832   3.901
 72 A1   73 A1   74 A1   75 A1   76 A1   77 A1   78 A1   79 A1                 
  3.955   4.075   4.131   4.148   4.244   4.352   4.442   4.506
 80 A1   81 A1   82 A1   83 A1   84 A1   85 A1   86 A1   87 A1                 
  4.522   4.603   4.671   4.723   4.809   4.996   5.048   5.219
 88 A1   89 A1   90 A1   91 A1   92 A1   93 A1   94 A1   95 A1                 
  5.336   5.422   5.489   5.881   5.922   6.078   6.428   6.487
 96 A1   97 A1   98 A1   99 A1  100 A1  101 A1  102 A1  103 A1                 
  6.767   8.993  12.531  13.467  16.090   0.114   0.460   0.551
104 A1  105 A1  106 A1  107 A1  108 A1    2 A2    3 A2    4 A2                 
  0.660   0.846   0.848   0.957   1.206   1.285   1.500   1.579
  5 A2    6 A2    7 A2    8 A2    9 A2   10 A2   11 A2   12 A2                 
  1.798   2.253   2.376   2.456   2.552   2.695   2.950   3.045
 13 A2   14 A2   15 A2   16 A2   17 A2   18 A2   19 A2   20 A2                 
  3.099   3.224   3.367   3.427   3.457   3.638   3.679   3.788
 21 A2   22 A2   23 A2   24 A2   25 A2   26 A2   27 A2   28 A2                 
  3.978   4.071   4.143   4.194   4.406   4.612   4.650   5.105
 29 A2   30 A2   31 A2   32 A2   33 A2   34 A2   35 A2   36 A2                 
  5.134   5.367   0.165   0.206   0.346   0.379   0.438   0.490
 37 A2   38 A2   10 B1   11 B1   12 B1   13 B1   14 B1   15 B1                 
  0.518   0.580   0.589   0.640   0.698   0.726   0.813   0.883
 16 B1   17 B1   18 B1   19 B1   20 B1   21 B1   22 B1   23 B1                 
  0.931   1.021   1.026   1.103   1.253   1.373   1.408   1.490
 24 B1   25 B1   26 B1   27 B1   28 B1   29 B1   30 B1   31 B1                 
  1.496   1.530   1.578   1.614   1.736   1.997   2.131   2.241
 32 B1   33 B1   34 B1   35 B1   36 B1   37 B1   38 B1   39 B1                 
  2.361   2.431   2.444   2.571   2.639   2.726   2.775   2.843
 40 B1   41 B1   42 B1   43 B1   44 B1   45 B1   46 B1   47 B1                 
  2.913   3.029   3.140   3.201   3.314   3.350   3.374   3.428
 48 B1   49 B1   50 B1   51 B1   52 B1   53 B1   54 B1   55 B1                 
  3.517   3.572   3.669   3.685   3.744   3.969   4.117   4.123
 56 B1   57 B1   58 B1   59 B1   60 B1   61 B1   62 B1   63 B1                 
  4.175   4.249   4.372   4.450   4.502   4.538   4.672   4.700
 64 B1   65 B1   66 B1   67 B1   68 B1   69 B1   70 B1   71 B1                 
  4.883   5.079   5.095   5.308   5.375   5.517   5.592   5.909
 72 B1   73 B1   74 B1   75 B1   76 B1   77 B1   78 B1   79 B1                 
  6.272   6.303   6.420   7.183  13.184  13.757   0.115   0.313
 80 B1   81 B1   82 B1   83 B1   84 B1   85 B1    5 B2    6 B2                 
  0.421   0.468   0.526   0.576   0.592   0.672   0.786   0.920
  7 B2    8 B2    9 B2   10 B2   11 B2   12 B2   13 B2   14 B2                 
  1.073   1.172   1.203   1.273   1.482   1.558   1.746   2.245
 15 B2   16 B2   17 B2   18 B2   19 B2   20 B2   21 B2   22 B2                 
  2.318   2.412   2.428   2.510   2.580   2.659   2.829   2.859
 23 B2   24 B2   25 B2   26 B2   27 B2   28 B2   29 B2   30 B2                 
  2.950   2.995   3.020   3.215   3.252   3.258   3.473   3.550
 31 B2   32 B2   33 B2   34 B2   35 B2   36 B2   37 B2   38 B2                 
  3.647   3.671   3.724   3.996   4.094   4.135   4.181   4.375
 39 B2   40 B2   41 B2   42 B2   43 B2   44 B2   45 B2   46 B2                 
  4.490   4.658   4.694   5.026   5.055   5.242   5.726
 47 B2   48 B2   49 B2   50 B2   51 B2   52 B2   53 B2                         
 --------------------------------------------------------------

          Ground-State Mulliken Net Atomic Charges

     Atom                 Charge (a.u.)    Spin (a.u.)
  --------------------------------------------------------
      1 H                     0.222644      -0.000648
      2 C                    -0.086693      -0.013438
      3 C                    -0.090291      -0.043158
      4 H                     0.215854       0.004148
      5 C                    -0.015446      -0.337330
      6 H                     0.227332       0.012983
      7 C                    -0.090291      -0.043158
      8 H                     0.215854       0.004148
      9 C                    -0.086693      -0.013438
     10 H                     0.222644      -0.000648
     11 C                     0.098761      -0.366064
     12 Cl                    0.166323      -0.203399
  --------------------------------------------------------
  Sum of atomic charges =     1.000000
  Sum of spin   charges =    -1.000000

 -----------------------------------------------------------------
                    Cartesian Multipole Moments
 -----------------------------------------------------------------
    Charge (ESU x 10^10)
                 4.8032
    Dipole Moment (Debye)
         X       0.0000      Y       0.0000      Z      -2.9401
       Tot       2.9401
    Quadrupole Moments (Debye-Ang)
        XX     -33.4208     XY      -0.0000     YY     -46.7892
        XZ       0.0000     YZ       0.0000     ZZ     -23.8110
    Octopole Moments (Debye-Ang^2)
       XXX       0.0000    XXY       0.0000    XYY       0.0000
       YYY       0.0000    XXZ      -6.7692    XYZ       0.0000
       YYZ       5.8369    XZZ      -0.0000    YZZ       0.0000
       ZZZ     -13.3446
    Hexadecapole Moments (Debye-Ang^3)
      XXXX    -225.8745   XXXY       0.0000   XXYY     -60.5823
      XYYY       0.0000   YYYY     -49.6518   XXXZ       0.0000
      XXYZ       0.0000   XYYZ      -0.0000   YYYZ       0.0000
      XXZZ    -151.3254   XYZZ      -0.0000   YYZZ    -141.4977
      XZZZ       0.0000   YZZZ       0.0000   ZZZZ    -588.9205
 -----------------------------------------------------------------
 DrvMan completing analytic gradient of the correlated energy
 Correlated dipole moment
            1
    1   0.0000000
    2   0.0000000
    3  -1.1567109
 Energy read as -690.543440419
 Full Analytical Gradient: (in a.u., or Hartree/Bohr)
             1             2             3             4             5
    1   -0.00009267    0.02816702    0.02339170   -0.00085079   -0.00000000
    2    0.00000000   -0.00000000   -0.00000000    0.00000000   -0.00000000
    3    0.00087408    0.02655019   -0.02425684   -0.00086326    0.01020262
             6             7             8             9            10
    1   -0.00000000   -0.02339170    0.00085079   -0.02816702    0.00009267
    2   -0.00000000    0.00000000    0.00000000   -0.00000000   -0.00000000
    3    0.00012458   -0.02425684   -0.00086326    0.02655019    0.00087408
            11            12
    1    0.00000000    0.00000000
    2    0.00000000   -0.00000000
    3   -0.04452294    0.02958742
 Gradient time:  CPU 1.79 s  wall 3.09 s
 Geometry Optimization Parameters
   NAtoms,    NIC,     NZ,  NCons,   NDum,   NFix, NCnnct, MaxDiis
       12      78       0       0       0       0       0       0


** GEOMETRY OPTIMIZATION IN DELOCALIZED INTERNAL COORDINATES **
   Searching for a Minimum

   Optimization Cycle:   1

                       Coordinates (Angstroms)
     ATOM                X               Y               Z
      1  H        -2.1400320233    0.0000000000    0.3814604176
      2  C        -1.2120583232    0.0000000000   -0.1718064324
      3  C        -1.2042956497    0.0000000000   -1.5636931963
      4  H        -2.1437187877    0.0000000000   -2.0992343916
      5  C         0.0000000000    0.0000000000   -2.2626903959
      6  H         0.0000000000    0.0000000000   -3.3435444016
      7  C         1.2042956497    0.0000000000   -1.5636931963
      8  H         2.1437187877    0.0000000000   -2.0992343916
      9  C         1.2120583232    0.0000000000   -0.1718064324
     10  H         2.1400320233    0.0000000000    0.3814604176
     11  C         0.0000000000    0.0000000000    0.5111041560
     12  Cl        0.0000000000    0.0000000000    2.2420356078
   Point Group: c2v   Number of degrees of freedom:    11


   Energy is   -690.543440419


 Attempting to Generate Delocalized Internal Coordinates

 11 Hessian modes will be used to form the next step
  Hessian Eigenvalues:
     0.160000    0.160000    0.220000    0.234961    0.324108    0.358316
     0.358913    0.359474    0.427026    0.469882    0.470035

 Minimum Search - Taking Simple RFO Step
 Searching for Lamda that Minimizes Along All modes
 Value Taken    Lamda =  -0.01081696
 Step Taken.  Stepsize is  0.165716

                             Maximum     Tolerance    Cnvgd?
         Gradient           0.042980      0.000300      NO
         Displacement       0.110998      0.001200      NO
         Energy change     *********      0.000001      NO


 New Cartesian Coordinates Obtained by Inverse Iteration

 Displacement from previous Coordinates is:  0.228220
 ----------------------------------------------------------------
             Standard Nuclear Orientation (Angstroms)
    I     Atom           X                Y                Z
 ----------------------------------------------------------------
    1      H      -2.1756008913     0.0000000000     0.3758735120
    2      C      -1.2494503564     0.0000000000    -0.1789752579
    3      C      -1.2381001639     0.0000000000    -1.5488685571
    4      H      -2.1715355511     0.0000000000    -2.0914589079
    5      C       0.0000000000     0.0000000000    -2.2379002061
    6      H       0.0000000000     0.0000000000    -3.3189325111
    7      C       1.2381001639     0.0000000000    -1.5488685571
    8      H       2.1715355511     0.0000000000    -2.0914589079
    9      C       1.2494503564     0.0000000000    -0.1789752579
   10      H       2.1756008913     0.0000000000     0.3758735120
   11      C       0.0000000000     0.0000000000     0.4999325987
   12      Cl      0.0000000000     0.0000000000     2.1841163013
 ----------------------------------------------------------------
 Molecular Point Group                 C2v   NOp =  4
 Largest Abelian Subgroup              C2v   NOp =  4
 Nuclear Repulsion Energy =   317.1086245365 hartrees
 There are       29 alpha and       29 beta electrons
 Applying Cartesian multipole field
    Component          Value
    ---------          -----
     (2,0,0)        1.00000E-11
     (0,2,0)        2.00000E-10
     (0,0,2)       -3.00000E-11
 Nucleus-field energy     =    -0.0000000153 hartrees
 Requested basis set is cc-pVTZ
 There are 102 shells and 284 basis functions
 A cutoff of  1.0D-14 yielded   4985 shell pairs
 There are     39151 function pairs (     51178 Cartesian)
 Smallest overlap matrix eigenvalue = 4.02E-05
 Guess MOs from SCF MO coefficient file

 -----------------------------------------------------------------------
  General SCF calculation program by
  Eric Jon Sundstrom, Paul Horn, Yuezhi Mao, Dmitri Zuev, Alec White,
  David Stuck, Shaama M.S., Shane Yost, Joonho Lee, David Small,
  Daniel Levine, Susi Lehtola, Hugh Burton, Evgeny Epifanovsky
 -----------------------------------------------------------------------
 Hartree-Fock
 using 8 threads for integral computing
 -------------------------------------------------------
 OpenMP Integral computing Module                
 Release: version 2.0, May 2017, Q-Chem Inc. Pleasanton 
 -------------------------------------------------------
 A unrestricted SCF calculation will be
 performed using DIIS
 SCF converges when DIIS error is below 1.0e-08
 ---------------------------------------
  Cycle       Energy         DIIS error
 ---------------------------------------
    1    -689.7048717445      2.22e-04  
    2    -689.7071115985      5.58e-05  
    3    -689.7072724879      2.15e-05  
    4    -689.7072969816      6.04e-06  
    5    -689.7072996745      1.63e-06  
    6    -689.7073000979      8.91e-07  
    7    -689.7073002255      3.80e-07  
    8    -689.7073002683      1.94e-07  
    9    -689.7073002752      5.91e-08  
   10    -689.7073002756      2.28e-08  
   11    -689.7073002757      5.41e-09  Convergence criterion met
 ---------------------------------------
 SCF time:   CPU 597.70s  wall 76.00s 
<S^2> =         -0.000000000
 SCF   energy in the final basis set =     -689.7073002757
 Total energy in the final basis set =     -689.7073002757


 ------------------------------------------------------------------------------

   CCMAN2: suite of methods based on coupled cluster
           and equation of motion theories.

   Components:
   * libvmm-1.3-trunk
     by Evgeny Epifanovsky, Ilya Kaliman.
   * libtensor-2.5-trunk
     by Evgeny Epifanovsky, Michael Wormit, Dmitry Zuev, Sam Manzer, 
        Ilya Kaliman.
   * libcc-2.5-trunk
     by Evgeny Epifanovsky, Arik Landau, Tomasz Kus, Kirill Khistyaev, 
        Dmitry Zuev, Prashant Manohar, Xintian Feng, Anna Krylov, 
        Matthew Goldey, Alec White, Thomas Jagau, Kaushik Nanda, 
        Anastasia Gunina, Alexander Kunitsa, Joonho Lee.

   CCMAN original authors:
   Anna I. Krylov, C. David Sherrill, Steven R. Gwaltney,
   Edward F. C. Byrd (2000)
   Sergey V. Levchenko, Lyudmila V. Slipchenko, Tao Wang,
   Ana-Maria C. Cristian (2003)
   Piotr A. Pieniazek, C. Melania Oana, Evgeny Epifanovsky (2007)
   Prashant Manohar (2009)

 ------------------------------------------------------------------------------


 Allocating and initializing 80000MB of RAM...
 Calculation will run on 8 cores.


 Alpha MOs, Unrestricted
 -- Occupied --                  
-104.84  -11.31  -11.25  -11.25  -11.25  -11.25  -11.25  -10.56
  1 A1    2 A1    3 A1    1 B1    4 A1    2 B1    5 A1    6 A1                 
 -8.031  -8.029  -8.029  -1.194  -1.121  -1.038  -0.980  -0.838
  7 A1    3 B1    1 B2    8 A1    9 A1    4 B1   10 A1    5 B1                 
 -0.822  -0.708  -0.653  -0.644  -0.612  -0.582  -0.545  -0.516
 11 A1   12 A1   13 A1    6 B1    7 B1   14 A1    2 B2    8 B1                 
 -0.515  -0.468  -0.451  -0.358  -0.321
 15 A1    3 B2    9 B1    1 A2    4 B2                                         
 -- Virtual --                   
  0.108   0.118   0.141   0.164   0.175   0.204   0.206   0.228
  5 B2    2 A2   16 A1   10 B1   17 A1   18 A1   11 B1   19 A1                 
  0.307   0.307   0.344   0.377   0.393   0.401   0.423   0.438
 20 A1    6 B2   12 B1   13 B1   21 A1   22 A1    7 B2   23 A1                 
  0.442   0.459   0.473   0.487   0.500   0.506   0.515   0.525
 14 B1    3 A2    8 B2   15 B1   24 A1   25 A1   16 B1    9 B2                 
  0.544   0.552   0.561   0.572   0.585   0.590   0.597   0.600
 26 A1    4 A2   27 A1   10 B2   17 B1   18 B1   11 B2   28 A1                 
  0.624   0.641   0.657   0.658   0.672   0.683   0.695   0.727
 29 A1   19 B1    5 A2   30 A1   12 B2   31 A1   20 B1   32 A1                 
  0.731   0.792   0.814   0.822   0.833   0.853   0.870   0.876
 21 B1   13 B2   22 B1   33 A1    6 A2    7 A2   34 A1   23 B1                 
  0.921   0.927   0.951   0.968   0.976   1.000   1.015   1.021
 24 B1   14 B2    8 A2   35 A1   36 A1   37 A1   25 B1   26 B1                 
  1.070   1.078   1.100   1.106   1.167   1.197   1.210   1.217
 38 A1   15 B2   39 A1   27 B1   16 B2   17 B2    9 A2   40 A1                 
  1.261   1.263   1.276   1.277   1.323   1.345   1.372   1.404
 28 B1   41 A1   18 B2   10 A2   42 A1   43 A1   29 B1   44 A1                 
  1.418   1.470   1.476   1.487   1.494   1.498   1.530   1.551
 30 B1   31 B1   19 B2   45 A1   11 A2   32 B1   33 B1   46 A1                 
  1.568   1.569   1.580   1.591   1.633   1.644   1.687   1.736
 12 A2   20 B2   34 B1   47 A1   35 B1   48 A1   49 A1   36 B1                 
  1.741   1.750   1.791   1.928   1.984   2.099   2.145   2.178
 50 A1   21 B2   13 A2   51 A1   37 B1   52 A1   38 B1   53 A1                 
  2.231   2.236   2.253   2.266   2.300   2.316   2.353   2.357
 39 B1   22 B2   14 A2   54 A1   55 A1   23 B2   40 B1   56 A1                 
  2.369   2.410   2.419   2.436   2.442   2.444   2.453   2.481
 15 A2   24 B2   41 B1   25 B2   57 A1   42 B1   16 A2   58 A1                 
  2.504   2.553   2.575   2.580   2.621   2.640   2.673   2.704
 26 B2   17 A2   43 B1   27 B2   59 A1   44 B1   28 B2   60 A1                 
  2.708   2.726   2.737   2.759   2.770   2.819   2.825   2.835
 18 A2   45 B1   61 A1   62 A1   46 B1   29 B2   47 B1   63 A1                 
  2.859   2.884   2.896   2.939   2.958   2.989   3.020   3.038
 30 B2   64 A1   48 B1   31 B2   19 A2   32 B2   33 B2   49 B1                 
  3.040   3.044   3.101   3.104   3.121   3.142   3.208   3.223
 20 A2   65 A1   66 A1   21 A2   67 A1   50 B1   34 B2   51 B1                 
  3.230   3.240   3.261   3.283   3.300   3.312   3.337   3.354
 22 A2   68 A1   35 B2   36 B2   52 B1   69 A1   53 B1   23 A2                 
  3.364   3.377   3.384   3.399   3.407   3.427   3.428   3.458
 70 A1   54 B1   71 A1   72 A1   55 B1   24 A2   73 A1   25 A2                 
  3.458   3.476   3.515   3.561   3.584   3.621   3.632   3.643
 74 A1   37 B2   56 B1   38 B2   57 B1   75 A1   26 A2   76 A1                 
  3.643   3.659   3.683   3.684   3.697   3.715   3.732   3.754
 39 B2   58 B1   27 A2   59 B1   40 B2   41 B2   77 A1   60 B1                 
  3.779   3.812   3.876   3.965   3.967   3.974   3.995   4.052
 28 A2   78 A1   79 A1   80 A1   61 B1   29 A2   42 B2   30 A2                 
  4.067   4.087   4.091   4.110   4.117   4.126   4.132   4.137
 81 A1   43 B2   62 B1   63 B1   82 A1   83 A1   31 A2   44 B2                 
  4.148   4.172   4.188   4.220   4.242   4.340   4.342   4.368
 64 B1   45 B2   32 A2   84 A1   65 B1   85 A1   46 B2   66 B1                 
  4.420   4.446   4.464   4.473   4.482   4.504   4.517   4.527
 33 A2   67 B1   86 A1   47 B2   87 A1   68 B1   88 A1   69 B1                 
  4.578   4.584   4.614   4.641   4.650   4.667   4.697   4.716
 34 A2   89 A1   48 B2   35 A2   90 A1   70 B1   91 A1   49 B2                 
  4.719   4.795   4.853   4.993   5.017   5.042   5.048   5.066
 71 B1   92 A1   72 B1   93 A1   50 B2   51 B2   73 B1   94 A1                 
  5.077   5.089   5.107   5.204   5.244   5.302   5.338   5.342
 74 B1   36 A2   37 A2   95 A1   52 B2   75 B1   96 A1   76 B1                 
  5.374   5.428   5.486   5.490   5.600   5.714   5.875   5.888
 38 A2   97 A1   98 A1   77 B1   78 B1   53 B2   99 A1  100 A1                 
  5.920   6.074   6.261   6.299   6.384   6.401   6.550   6.769
 79 B1  101 A1   80 B1   81 B1   82 B1  102 A1  103 A1  104 A1                 
  7.145   8.949  12.287  12.833  13.172  13.839  15.902
 83 B1  105 A1  106 A1   84 B1  107 A1   85 B1  108 A1                         

 Beta MOs, Unrestricted
 -- Occupied --                  
-104.84  -11.31  -11.25  -11.25  -11.25  -11.25  -11.25  -10.56
  1 A1    2 A1    3 A1    1 B1    4 A1    2 B1    5 A1    6 A1                 
 -8.031  -8.029  -8.029  -1.194  -1.121  -1.038  -0.980  -0.838
  7 A1    3 B1    1 B2    8 A1    9 A1    4 B1   10 A1    5 B1                 
 -0.822  -0.708  -0.653  -0.644  -0.612  -0.582  -0.545  -0.516
 11 A1   12 A1   13 A1    6 B1    7 B1   14 A1    2 B2    8 B1                 
 -0.515  -0.468  -0.451  -0.358  -0.321
 15 A1    3 B2    9 B1    1 A2    4 B2                                         
 -- Virtual --                   
  0.108   0.118   0.141   0.164   0.175   0.204   0.206   0.228
  5 B2    2 A2   16 A1   10 B1   17 A1   18 A1   11 B1   19 A1                 
  0.307   0.307   0.344   0.377   0.393   0.401   0.423   0.438
 20 A1    6 B2   12 B1   13 B1   21 A1   22 A1    7 B2   23 A1                 
  0.442   0.459   0.473   0.487   0.500   0.506   0.515   0.525
 14 B1    3 A2    8 B2   15 B1   24 A1   25 A1   16 B1    9 B2                 
  0.544   0.552   0.561   0.572   0.585   0.590   0.597   0.600
 26 A1    4 A2   27 A1   10 B2   17 B1   18 B1   11 B2   28 A1                 
  0.624   0.641   0.657   0.658   0.672   0.683   0.695   0.727
 29 A1   19 B1    5 A2   30 A1   12 B2   31 A1   20 B1   32 A1                 
  0.731   0.792   0.814   0.822   0.833   0.853   0.870   0.876
 21 B1   13 B2   22 B1   33 A1    6 A2    7 A2   34 A1   23 B1                 
  0.921   0.927   0.951   0.968   0.976   1.000   1.015   1.021
 24 B1   14 B2    8 A2   35 A1   36 A1   37 A1   25 B1   26 B1                 
  1.070   1.078   1.100   1.106   1.167   1.197   1.210   1.217
 38 A1   15 B2   39 A1   27 B1   16 B2   17 B2    9 A2   40 A1                 
  1.261   1.263   1.276   1.277   1.323   1.345   1.372   1.404
 28 B1   41 A1   18 B2   10 A2   42 A1   43 A1   29 B1   44 A1                 
  1.418   1.470   1.476   1.487   1.494   1.498   1.530   1.551
 30 B1   31 B1   19 B2   45 A1   11 A2   32 B1   33 B1   46 A1                 
  1.568   1.569   1.580   1.591   1.633   1.644   1.687   1.736
 12 A2   20 B2   34 B1   47 A1   35 B1   48 A1   49 A1   36 B1                 
  1.741   1.750   1.791   1.928   1.984   2.099   2.145   2.178
 50 A1   21 B2   13 A2   51 A1   37 B1   52 A1   38 B1   53 A1                 
  2.231   2.236   2.253   2.266   2.300   2.316   2.353   2.357
 39 B1   22 B2   14 A2   54 A1   55 A1   23 B2   40 B1   56 A1                 
  2.369   2.410   2.419   2.436   2.442   2.444   2.453   2.481
 15 A2   24 B2   41 B1   25 B2   57 A1   42 B1   16 A2   58 A1                 
  2.504   2.553   2.575   2.580   2.621   2.640   2.673   2.704
 26 B2   17 A2   43 B1   27 B2   59 A1   44 B1   28 B2   60 A1                 
  2.708   2.726   2.737   2.759   2.770   2.819   2.825   2.835
 18 A2   45 B1   61 A1   62 A1   46 B1   29 B2   47 B1   63 A1                 
  2.859   2.884   2.896   2.939   2.958   2.989   3.020   3.038
 30 B2   64 A1   48 B1   31 B2   19 A2   32 B2   33 B2   49 B1                 
  3.040   3.044   3.101   3.104   3.121   3.142   3.208   3.223
 20 A2   65 A1   66 A1   21 A2   67 A1   50 B1   34 B2   51 B1                 
  3.230   3.240   3.261   3.283   3.300   3.312   3.337   3.354
 22 A2   68 A1   35 B2   36 B2   52 B1   69 A1   53 B1   23 A2                 
  3.364   3.377   3.384   3.399   3.407   3.427   3.428   3.458
 70 A1   54 B1   71 A1   72 A1   55 B1   24 A2   73 A1   25 A2                 
  3.458   3.476   3.515   3.561   3.584   3.621   3.632   3.643
 74 A1   37 B2   56 B1   38 B2   57 B1   75 A1   26 A2   76 A1                 
  3.643   3.659   3.683   3.684   3.697   3.715   3.732   3.754
 39 B2   58 B1   27 A2   59 B1   40 B2   41 B2   77 A1   60 B1                 
  3.779   3.812   3.876   3.965   3.967   3.974   3.995   4.052
 28 A2   78 A1   79 A1   80 A1   61 B1   29 A2   42 B2   30 A2                 
  4.067   4.087   4.091   4.110   4.117   4.126   4.132   4.137
 81 A1   43 B2   62 B1   63 B1   82 A1   83 A1   31 A2   44 B2                 
  4.148   4.172   4.188   4.220   4.242   4.340   4.342   4.368
 64 B1   45 B2   32 A2   84 A1   65 B1   85 A1   46 B2   66 B1                 
  4.420   4.446   4.464   4.473   4.482   4.504   4.517   4.527
 33 A2   67 B1   86 A1   47 B2   87 A1   68 B1   88 A1   69 B1                 
  4.578   4.584   4.614   4.641   4.650   4.667   4.697   4.716
 34 A2   89 A1   48 B2   35 A2   90 A1   70 B1   91 A1   49 B2                 
  4.719   4.795   4.853   4.993   5.017   5.042   5.048   5.066
 71 B1   92 A1   72 B1   93 A1   50 B2   51 B2   73 B1   94 A1                 
  5.077   5.089   5.107   5.204   5.244   5.302   5.338   5.342
 74 B1   36 A2   37 A2   95 A1   52 B2   75 B1   96 A1   76 B1                 
  5.374   5.428   5.486   5.490   5.600   5.714   5.875   5.888
 38 A2   97 A1   98 A1   77 B1   78 B1   53 B2   99 A1  100 A1                 
  5.920   6.074   6.261   6.299   6.384   6.401   6.550   6.769
 79 B1  101 A1   80 B1   81 B1   82 B1  102 A1  103 A1  104 A1                 
  7.145   8.949  12.287  12.833  13.172  13.839  15.902
 83 B1  105 A1  106 A1   84 B1  107 A1   85 B1  108 A1                         

 Occupation and symmetry of molecular orbitals

 Point group: C2v (4 irreducible representations).

                           A1   A2   B1   B2    All 
 ----------------------------------------------------
 All molecular orbitals:
  - Alpha                  108  38   85   53    284 
  - Beta                   108  38   85   53    284 
 ----------------------------------------------------
 Alpha orbitals:
  - Frozen occupied        7    0    3    1     11  
  - Active occupied        8    1    6    3     18  
  - Active virtual         93   37   76   49    255 
  - Frozen virtual         0    0    0    0     0   
 ----------------------------------------------------
 Beta orbitals:
  - Frozen occupied        7    0    3    1     11  
  - Active occupied        8    1    6    3     18  
  - Active virtual         93   37   76   49    255 
  - Frozen virtual         0    0    0    0     0   
 ----------------------------------------------------

 Import integrals:   CPU 0.00 s  wall 0.00 s

 Import integrals:   CPU 2097.46 s  wall 298.41 s

 MP2 amplitudes:   CPU 8.46 s  wall 1.71 s

Running a single precision version
I will use integrals, stored in single precision format
           CCSD T amplitudes will be solved using DIIS.

           Start     Size      MaxIter   EConv     TConv     
           3         7         100       1.00e-06  1.00e-04  
 ------------------------------------------------------------------------------
           Energy (a.u.)   Ediff      Tdiff       Comment
 ------------------------------------------------------------------------------
          -690.84261522                           
     1    -690.83618088   6.43e-03   1.04e+00     
     2    -690.86999687   3.38e-02   1.43e-01     
     3    -690.86885640   1.14e-03   5.05e-02     
     4    -690.87176297   2.91e-03   1.44e-02     Switched to DIIS steps.
     5    -690.87269284   9.30e-04   1.12e-02     
     6    -690.87272360   3.08e-05   2.06e-03     
     7    -690.87270834   1.53e-05   1.06e-03     
     8    -690.87270617   2.18e-06   2.05e-04     
     9    -690.87270688   7.12e-07   7.58e-05     
 ------------------------------------------------------------------------------
          -690.87270688                           CCSD T converged.

End of single precision
No iterations in double precision will be done
 SCF energy                 = -689.70730028
 MP2 energy                 = -690.84261497
 CCSD correlation energy     =   -1.16540672
 CCSD total energy           = -690.87270700

 CCSD  T1^2 = 0.0075  T2^2 = 0.4280  Leading amplitudes:

 Amplitude    Orbitals with energies
  0.0196       1 (A2) B                  ->    3 (A2) B                   
              -0.3582                          0.4592                     
  0.0196       1 (A2) A                  ->    3 (A2) A                   
              -0.3582                          0.4592                     
  0.0182       4 (B2) A                  ->    8 (B2) A                   
              -0.3207                          0.4729                     
  0.0182       4 (B2) B                  ->    8 (B2) B                   
              -0.3207                          0.4729                     

 Amplitude    Orbitals with energies
 -0.0813       4 (B2) A      4 (B2) B    ->    5 (B2) A      5 (B2) B     
              -0.3207       -0.3207            0.1079        0.1079       
  0.0813       4 (B2) A      4 (B2) B    ->    5 (B2) B      5 (B2) A     
              -0.3207       -0.3207            0.1079        0.1079       
  0.0813       4 (B2) B      4 (B2) A    ->    5 (B2) A      5 (B2) B     
              -0.3207       -0.3207            0.1079        0.1079       
 -0.0813       4 (B2) B      4 (B2) A    ->    5 (B2) B      5 (B2) A     
              -0.3207       -0.3207            0.1079        0.1079       

 Computing CCSD intemediates for later calculations in single precision
 Finished.

 CCSD calculation:   CPU 1418.71 s  wall 207.71 s

 EOMEE-CCSD calculation:   CPU 64.38 s  wall 129.93 s

        Solving for EOMIP-CCSD B2 transitions.

Running a single precision version
      EOMIP-CCSD/MP2 right amplitudes will be solved using Davidson.
      Amplitudes will be solved using standard  algorithm
      Roots     MaxVec    MaxIter   Precond   Conv      Thresh    Shift    
      1         60        60        1         1.00e-06  1.00e-06  0.00e+00  
 ------------------------------------------------------------------------------
      Iter ConvRoots NVecs ResNorm Current eigenvalues (eV)
 ------------------------------------------------------------------------------
      0    0      1     9.94e-02   11.0564   
      1    0      2     2.92e-02   9.2729   
      2    0      3     8.26e-04   8.8331   
      3    0      4     8.76e-05   8.8151   
      4    0      5     1.54e-05   8.8125   
      5    0      6     1.54e-06   8.8119   
      6    1      7     3.31e-07   8.8120*  

     Davidson procedure converged

 EOMIP transition 1/B2
 Total energy = -690.54887093 a.u.  Excitation energy = 8.8120 eV.
 R1^2 = 0.9412  R2^2 = 0.0588  Res^2 = 3.31e-07
 Conv-d = yes

 Amplitude    Transitions between orbitals
 -0.9687       4 (B2) A                  ->    infty        
  0.0525       3 (B2) A                  ->    infty        
  0.0103       2 (B2) A                  ->    infty        

              Summary of significant orbitals:

               Number  Type             Irrep      Energy
               23      Occ  Alpha       2 (B2)     -0.5454
               26      Occ  Alpha       3 (B2)     -0.4684
               29      Occ  Alpha       4 (B2)     -0.3207


Running a single precision version
      EOMIP-CCSD/MP2 left amplitudes will be solved using Davidson.
      Amplitudes will be solved using MOM  algorithm
      Roots     MaxVec    MaxIter   Precond   Conv      Thresh    Shift    
      1         60        60        1         1.00e-06  1.00e-06  0.00e+00  
 ------------------------------------------------------------------------------
      Iter ConvRoots NVecs ResNorm Current eigenvalues (eV)
 ------------------------------------------------------------------------------
      0    0      1     3.17e-03   8.8120   
      1    0      2     9.45e-04   8.8120   
      2    0      3     4.10e-05   8.8120   
      3    0      4     2.90e-06   8.8120   
      4    1      5     2.10e-07   8.8121*  

     Davidson procedure converged

Running a double precision version
           EOM amplitude response will be solved using DIIS.
           Start     Size      MaxIter   EConv     ZConv     
           3         7         100       1.00e-06  1.00e-06  
 ------------------------------------------------------------------------------
            Enorm      Zdiff       Comment
 ------------------------------------------------------------------------------
     1     9.51e-02   5.57e-02     
     2     3.25e-02   2.02e-02     
     3     1.57e-02   7.30e-03     
     4     4.92e-03   5.57e-03     Switched to DIIS steps.
     5     2.47e-03   1.10e-03     
     6     9.75e-04   4.81e-04     
     7     4.98e-04   9.79e-05     
     8     2.99e-04   3.65e-05     
     9     1.41e-04   2.17e-05     
    10     6.66e-05   7.52e-06     
    11     2.12e-05   2.06e-06     
    12     8.62e-06   9.82e-07     
    13     3.33e-06   5.23e-07     
    14     1.73e-06   3.35e-07     
    15     8.63e-07   2.06e-07     
 ------------------------------------------------------------------------------
                                   Amplitude response converged.

           Orbital response amplitudes will be solved using DIIS.
           Start     Size      MaxIter   EConv     LConv     
           3         7         100       1.00e-06  1.00e-06  
 ------------------------------------------------------------------------------
            Enorm      Ldiff       Comment
 ------------------------------------------------------------------------------
     1     9.12e-02   2.91e-03     
     2     6.02e-02   6.39e-03     
     3     7.79e-02   3.25e-02     
     4     1.89e-02   1.94e-02     Switched to DIIS steps.
     5     1.42e-02   5.29e-03     
     6     1.46e-02   8.58e-03     
     7     1.36e-02   1.09e-02     
     8     7.82e-03   1.94e-03     
     9     3.25e-03   3.86e-02     
    10     1.10e-03   1.20e-02     
    11     4.53e-04   1.76e-03     
    12     2.39e-04   2.82e-04     
    13     2.20e-04   3.87e-06     
    14     6.14e-05   1.35e-05     
    15     3.95e-05   7.64e-05     
    16     2.83e-05   2.63e-05     
    17     2.77e-05   2.17e-05     
    18     2.81e-05   6.55e-06     
    19     2.70e-05   1.49e-05     
    20     2.14e-05   6.56e-05     
    21     1.36e-05   9.52e-05     
    22     8.95e-06   4.35e-05     
    23     4.18e-06   2.03e-05     
    24     2.66e-06   8.52e-06     
    25     1.36e-06   1.49e-06     
    26     7.21e-07   1.11e-06     
    27     4.93e-07   4.82e-08     
 ------------------------------------------------------------------------------
                                   Orbital response converged.

 EOMIP-CCSD calculation:   CPU 3802.00 s  wall 2009.87 s

 Transferring MO TPDM to AO TPDM
 Transferring g2_o1o1o1o1
 Transferring g2_o1o1o1v1
 Transferring g2_o1o1v1v1
 Transferring g2_o1v1o1v1
 Transferring g2_o1v1v1v1
 Transferring g2_v1v1v1v1
 Adding separable TPDM
 Computing TPDM gradient
 --------------------------------------------------------
 2e gradient
  Atom          X               Y               Z
 --------------------------------------------------------
    1          4.682050       -0.000000       -2.061869  
    2          7.764037        0.000000       -2.247793  
    3          6.601643       -0.000000        6.446415  
    4          4.159083        0.000000        2.357690  
    5         -0.000000        0.000000        8.409594  
    6          0.000000        0.000000        4.808034  
    7         -6.601643        0.000000        6.446415  
    8         -4.159083        0.000000        2.357690  
    9         -7.764037        0.000000       -2.247793  
   10         -4.682050        0.000000       -2.061869  
   11         -0.000000       -0.000000        3.790943  
   12         -0.000000       -0.000000      -25.997456  
 --------------------------------------------------------
 --------------------------------------------------------
 Final gradient
  Atom          X               Y               Z
 --------------------------------------------------------
    1          4.682050       -0.000000       -2.061869  
    2          7.764037        0.000000       -2.247793  
    3          6.601643       -0.000000        6.446415  
    4          4.159083        0.000000        2.357690  
    5         -0.000000        0.000000        8.409594  
    6          0.000000        0.000000        4.808034  
    7         -6.601643        0.000000        6.446415  
    8         -4.159083        0.000000        2.357690  
    9         -7.764037        0.000000       -2.247793  
   10         -4.682050        0.000000       -2.061869  
   11         -0.000000       -0.000000        3.790943  
   12         -0.000000       -0.000000      -25.997456  
 --------------------------------------------------------
 Analytic gradient from two-electron contribution:   CPU 124529.74 s  wall 17312.50 s

 Total ccman2 time:   CPU 131997.68 s  wall 19975.92 s


 --------------------------------------------------------------
             Orbital Energies (a.u.) and Symmetries
 --------------------------------------------------------------

 Alpha MOs, Unrestricted
 -- Occupied --                  
-104.84  -11.31  -11.25  -11.25  -11.25  -10.56   -8.03  -11.25
  1 A1    2 A1    3 A1    4 A1    5 A1    6 A1    7 A1    1 B1                 
-11.248  -8.029  -8.029  -1.194  -1.121  -0.980  -0.822  -0.708
  2 B1    3 B1    1 B2    8 A1    9 A1   10 A1   11 A1   12 A1                 
 -0.653  -0.582  -0.515  -0.358  -1.038  -0.838  -0.644  -0.612
 13 A1   14 A1   15 A1    1 A2    4 B1    5 B1    6 B1    7 B1                 
 -0.516  -0.451  -0.545  -0.468  -0.321
  8 B1    9 B1    2 B2    3 B2    4 B2                                         
 -- Virtual --                   
  0.141   0.175   0.204   0.228   0.307   0.393   0.401   0.438
 16 A1   17 A1   18 A1   19 A1   20 A1   21 A1   22 A1   23 A1                 
  0.500   0.506   0.544   0.561   0.600   0.624   0.658   0.683
 24 A1   25 A1   26 A1   27 A1   28 A1   29 A1   30 A1   31 A1                 
  0.727   0.822   0.870   0.968   0.976   1.000   1.070   1.100
 32 A1   33 A1   34 A1   35 A1   36 A1   37 A1   38 A1   39 A1                 
  1.217   1.263   1.323   1.345   1.404   1.487   1.551   1.591
 40 A1   41 A1   42 A1   43 A1   44 A1   45 A1   46 A1   47 A1                 
  1.644   1.687   1.741   1.928   2.099   2.178   2.266   2.300
 48 A1   49 A1   50 A1   51 A1   52 A1   53 A1   54 A1   55 A1                 
  2.357   2.442   2.481   2.621   2.704   2.737   2.759   2.835
 56 A1   57 A1   58 A1   59 A1   60 A1   61 A1   62 A1   63 A1                 
  2.884   3.044   3.101   3.121   3.240   3.312   3.364   3.384
 64 A1   65 A1   66 A1   67 A1   68 A1   69 A1   70 A1   71 A1                 
  3.399   3.428   3.458   3.621   3.643   3.732   3.812   3.876
 72 A1   73 A1   74 A1   75 A1   76 A1   77 A1   78 A1   79 A1                 
  3.965   4.067   4.117   4.126   4.220   4.340   4.464   4.482
 80 A1   81 A1   82 A1   83 A1   84 A1   85 A1   86 A1   87 A1                 
  4.517   4.584   4.650   4.697   4.795   4.993   5.066   5.204
 88 A1   89 A1   90 A1   91 A1   92 A1   93 A1   94 A1   95 A1                 
  5.338   5.428   5.486   5.875   5.888   6.074   6.401   6.550
 96 A1   97 A1   98 A1   99 A1  100 A1  101 A1  102 A1  103 A1                 
  6.769   8.949  12.287  13.172  15.902   0.118   0.459   0.552
104 A1  105 A1  106 A1  107 A1  108 A1    2 A2    3 A2    4 A2                 
  0.657   0.833   0.853   0.951   1.210   1.277   1.494   1.568
  5 A2    6 A2    7 A2    8 A2    9 A2   10 A2   11 A2   12 A2                 
  1.791   2.253   2.369   2.453   2.553   2.708   2.958   3.040
 13 A2   14 A2   15 A2   16 A2   17 A2   18 A2   19 A2   20 A2                 
  3.104   3.230   3.354   3.427   3.458   3.632   3.683   3.779
 21 A2   22 A2   23 A2   24 A2   25 A2   26 A2   27 A2   28 A2                 
  3.974   4.052   4.132   4.188   4.420   4.578   4.641   5.089
 29 A2   30 A2   31 A2   32 A2   33 A2   34 A2   35 A2   36 A2                 
  5.107   5.374   0.164   0.206   0.344   0.377   0.442   0.487
[...]
    Octopole Moments (Debye-Ang^2)
       XXX       0.0000    XXY      -0.0000    XYY      -0.0000
       YYY      -0.0000    XXZ      -6.4575    XYZ       0.0000
       YYZ       6.6248    XZZ       0.0000    YZZ      -0.0000
       ZZZ     -11.1321
    Hexadecapole Moments (Debye-Ang^3)
      XXXX    -233.7555   XXXY      -0.0000   XXYY     -62.4782
      XYYY      -0.0000   YYYY     -49.6899   XXXZ      -0.0000
      XXYZ      -0.0000   XYYZ      -0.0000   YYYZ      -0.0000
      XXZZ    -147.7918   XYZZ       0.0000   YYZZ    -137.5390
      XZZZ      -0.0000   YZZZ       0.0000   ZZZZ    -574.7757
 -----------------------------------------------------------------
 DrvMan completing analytic gradient of the correlated energy
 Correlated dipole moment
            1
    1   0.0000000
    2  -0.0000000
    3  -1.1114195
 Energy read as -690.549182778
 Full Analytical Gradient: (in a.u., or Hartree/Bohr)
             1             2             3             4             5
    1    0.00001338    0.00003740   -0.00003887    0.00001659   -0.00000000
    2    0.00000000   -0.00000000    0.00000000    0.00000000   -0.00000000
    3   -0.00002935   -0.00005986    0.00015415   -0.00003543   -0.00005704
             6             7             8             9            10
    1    0.00000000    0.00003887   -0.00001659   -0.00003740   -0.00001338
    2   -0.00000000   -0.00000000    0.00000000    0.00000000   -0.00000000
    3    0.00001918    0.00015415   -0.00003543   -0.00005986   -0.00002935
            11            12
    1   -0.00000000   -0.00000000
    2    0.00000000   -0.00000000
    3   -0.00003441    0.00001323
 Gradient time:  CPU 1.69 s  wall 2.92 s
 Geometry Optimization Parameters
   NAtoms,    NIC,     NZ,  NCons,   NDum,   NFix, NCnnct, MaxDiis
       12      78       0       0       0       0       0       0

 Cartesian Hessian Update
 Hessian Updated using BFGS Update


** GEOMETRY OPTIMIZATION IN DELOCALIZED INTERNAL COORDINATES **
   Searching for a Minimum

   Optimization Cycle:   4

                       Coordinates (Angstroms)
     ATOM                X               Y               Z
      1  H        -2.1651573376    0.0000000000    0.3879499861
      2  C        -1.2470507240    0.0000000000   -0.1801247700
      3  C        -1.2361338652    0.0000000000   -1.5492083889
      4  H        -2.1609781249    0.0000000000   -2.1059158595
      5  C         0.0000000000    0.0000000000   -2.2400161949
      6  H         0.0000000000    0.0000000000   -3.3212297746
      7  C         1.2361338652    0.0000000000   -1.5492083889
      8  H         2.1609781249    0.0000000000   -2.1059158595
      9  C         1.2470507240    0.0000000000   -0.1801247700
     10  H         2.1651573376    0.0000000000    0.3879499861
     11  C         0.0000000000    0.0000000000    0.5119321622
     12  Cl        0.0000000000    0.0000000000    2.1842696329
   Point Group: c2v   Number of degrees of freedom:    11


   Energy is   -690.549182778

 Hessian Updated using BFGS Update

 11 Hessian modes will be used to form the next step
  Hessian Eigenvalues:
     0.138534    0.161354    0.219372    0.231958    0.309159    0.358381
     0.359011    0.359647    0.415831    0.476906    0.503835

 Minimum Search - Taking Simple RFO Step
 Searching for Lamda that Minimizes Along All modes
 Value Taken    Lamda =   0.00000000
 Step Taken.  Stepsize is  0.000641

                             Maximum     Tolerance    Cnvgd?
         Gradient           0.000094      0.000300     YES
         Displacement       0.000335      0.001200     YES
         Energy change     -0.000014      0.000001      NO


                       Distance Matrix (Angstroms)
             H (  1)   C (  2)   C (  3)   H (  4)   C (  5)   H (  6)
   C (  2)  1.079643
   C (  3)  2.148410  1.369127
   H (  4)  2.493869  2.131651  1.079472
   C (  5)  3.405013  2.407963  1.416066  2.165135
   H (  6)  4.294871  3.379597  2.160576  2.479277  1.081214
   C (  7)  3.914251  2.835594  2.472268  3.442425  1.416066  2.160576
   H (  8)  4.993477  3.914503  3.442425  4.321956  2.165135  2.479277
   C (  9)  3.459172  2.494101  2.835594  3.914503  2.407963  3.379597
   H ( 10)  4.330315  3.459172  3.914251  4.993477  3.405013  4.294871
   C ( 11)  2.168704  1.426211  2.403399  3.394548  2.751948  3.833162
   Cl( 12)  2.813302  2.673106  3.932796  4.803698  4.424286  5.505499
             C (  7)   H (  8)   C (  9)   H ( 10)   C ( 11)
   H (  8)  1.079472
   C (  9)  1.369127  2.131651
   H ( 10)  2.148410  2.493869  1.079643
   C ( 11)  2.403399  3.394548  1.426211  2.168704
   Cl( 12)  3.932796  4.803698  2.673106  2.813302  1.672337

 Final energy is   -690.54918277787306     


 ******************************
 **  OPTIMIZATION CONVERGED  **
 ******************************

                       Coordinates (Angstroms)
     ATOM                X               Y               Z
      1  H        -2.1651573376    0.0000000000    0.3879499861
      2  C        -1.2470507240    0.0000000000   -0.1801247700
      3  C        -1.2361338652    0.0000000000   -1.5492083889
      4  H        -2.1609781249    0.0000000000   -2.1059158595
      5  C         0.0000000000    0.0000000000   -2.2400161949
      6  H         0.0000000000    0.0000000000   -3.3212297746
      7  C         1.2361338652    0.0000000000   -1.5492083889
      8  H         2.1609781249    0.0000000000   -2.1059158595
      9  C         1.2470507240    0.0000000000   -0.1801247700
     10  H         2.1651573376    0.0000000000    0.3879499861
     11  C         0.0000000000    0.0000000000    0.5119321622
     12  Cl        0.0000000000    0.0000000000    2.1842696329

Z-matrix Print:
$molecule
0 1
Cl
C  1 1.672337
C  2 1.426211 1 119.028300
H  3 1.079643 2 119.224717 1 -0.000000 0
C  3 1.369127 2 118.571442 1 -180.000000 0
H  5 1.079472 3 120.588865 2 -180.000000 0
C  5 1.416066 3 119.655302 2 -0.000000 0
H  7 1.081214 5 119.198444 3 -180.000000 0
C  7 1.416066 5 121.603112 3 -0.000000 0
H  9 1.079472 7 119.755833 5 -180.000000 0
C  9 1.369127 7 119.655302 5 -0.000000 0
H  11 1.079643 9 122.203841 7 -180.000000 0
$end


 --------------------------------------------------------------
             Orbital Energies (a.u.) and Symmetries
 --------------------------------------------------------------

 Alpha MOs, Unrestricted
 -- Occupied --                  
-104.84  -11.30  -11.25  -11.25  -11.25  -10.57   -8.03  -11.25
  1 A1    2 A1    3 A1    4 A1    5 A1    6 A1    7 A1    1 B1                 
-11.247  -8.030  -8.030  -1.196  -1.123  -0.980  -0.820  -0.708
  2 B1    3 B1    1 B2    8 A1    9 A1   10 A1   11 A1   12 A1                 
 -0.653  -0.583  -0.518  -0.358  -1.037  -0.838  -0.644  -0.610
 13 A1   14 A1   15 A1    1 A2    4 B1    5 B1    6 B1    7 B1                 
 -0.514  -0.452  -0.546  -0.469  -0.320
  8 B1    9 B1    2 B2    3 B2    4 B2                                         
 -- Virtual --                   
  0.142   0.175   0.204   0.230   0.306   0.393   0.402   0.439
 16 A1   17 A1   18 A1   19 A1   20 A1   21 A1   22 A1   23 A1                 
  0.500   0.506   0.546   0.562   0.600   0.625   0.657   0.683
 24 A1   25 A1   26 A1   27 A1   28 A1   29 A1   30 A1   31 A1                 
  0.728   0.822   0.869   0.971   0.975   0.999   1.074   1.100
 32 A1   33 A1   34 A1   35 A1   36 A1   37 A1   38 A1   39 A1                 
  1.215   1.268   1.327   1.344   1.403   1.485   1.550   1.592
 40 A1   41 A1   42 A1   43 A1   44 A1   45 A1   46 A1   47 A1                 
  1.647   1.684   1.739   1.930   2.111   2.183   2.264   2.308
 48 A1   49 A1   50 A1   51 A1   52 A1   53 A1   54 A1   55 A1                 
  2.364   2.431   2.479   2.617   2.705   2.739   2.761   2.826
 56 A1   57 A1   58 A1   59 A1   60 A1   61 A1   62 A1   63 A1                 
  2.894   3.043   3.108   3.122   3.241   3.314   3.365   3.386
 64 A1   65 A1   66 A1   67 A1   68 A1   69 A1   70 A1   71 A1                 
  3.398   3.430   3.459   3.622   3.646   3.735   3.805   3.885
 72 A1   73 A1   74 A1   75 A1   76 A1   77 A1   78 A1   79 A1                 
  3.968   4.067   4.113   4.121   4.222   4.344   4.459   4.473
 80 A1   81 A1   82 A1   83 A1   84 A1   85 A1   86 A1   87 A1                 
  4.520   4.580   4.652   4.705   4.789   4.994   5.074   5.205
 88 A1   89 A1   90 A1   91 A1   92 A1   93 A1   94 A1   95 A1                 
  5.336   5.415   5.478   5.884   5.897   6.082   6.417   6.588
 96 A1   97 A1   98 A1   99 A1  100 A1  101 A1  102 A1  103 A1                 
  6.785   8.972  12.242  13.163  15.900   0.118   0.460   0.552
104 A1  105 A1  106 A1  107 A1  108 A1    2 A2    3 A2    4 A2                 
  0.656   0.837   0.852   0.953   1.207   1.276   1.497   1.573
  5 A2    6 A2    7 A2    8 A2    9 A2   10 A2   11 A2   12 A2                 
  1.791   2.251   2.368   2.456   2.554   2.706   2.956   3.041
 13 A2   14 A2   15 A2   16 A2   17 A2   18 A2   19 A2   20 A2                 
  3.106   3.231   3.357   3.431   3.458   3.636   3.680   3.772
 21 A2   22 A2   23 A2   24 A2   25 A2   26 A2   27 A2   28 A2                 
  3.983   4.056   4.130   4.190   4.415   4.567   4.639   5.094
 29 A2   30 A2   31 A2   32 A2   33 A2   34 A2   35 A2   36 A2                 
  5.112   5.378   0.165   0.206   0.344   0.376   0.441   0.487
 37 A2   38 A2   10 B1   11 B1   12 B1   13 B1   14 B1   15 B1                 
  0.515   0.584   0.591   0.641   0.694   0.732   0.814   0.877
 16 B1   17 B1   18 B1   19 B1   20 B1   21 B1   22 B1   23 B1                 
  0.924   1.017   1.022   1.105   1.259   1.371   1.417   1.473
 24 B1   25 B1   26 B1   27 B1   28 B1   29 B1   30 B1   31 B1                 
  1.497   1.529   1.584   1.629   1.738   1.992   2.131   2.227
 32 B1   33 B1   34 B1   35 B1   36 B1   37 B1   38 B1   39 B1                 
  2.357   2.422   2.444   2.579   2.639   2.726   2.772   2.835
 40 B1   41 B1   42 B1   43 B1   44 B1   45 B1   46 B1   47 B1                 
  2.897   3.042   3.140   3.224   3.299   3.338   3.378   3.400
 48 B1   49 B1   50 B1   51 B1   52 B1   53 B1   54 B1   55 B1                 
  3.515   3.581   3.659   3.686   3.755   3.963   4.094   4.114
 56 B1   57 B1   58 B1   59 B1   60 B1   61 B1   62 B1   63 B1                 
  4.147   4.245   4.368   4.446   4.502   4.534   4.672   4.722
 64 B1   65 B1   66 B1   67 B1   68 B1   69 B1   70 B1   71 B1                 
  4.857   5.052   5.076   5.304   5.348   5.500   5.583   5.912
 72 B1   73 B1   74 B1   75 B1   76 B1   77 B1   78 B1   79 B1                 
  6.256   6.308   6.371   7.145  12.835  13.858   0.108   0.307
 80 B1   81 B1   82 B1   83 B1   84 B1   85 B1    5 B2    6 B2                 
  0.424   0.473   0.525   0.573   0.597   0.672   0.791   0.925
  7 B2    8 B2    9 B2   10 B2   11 B2   12 B2   13 B2   14 B2                 
  1.076   1.171   1.199   1.279   1.473   1.567   1.752   2.233
 15 B2   16 B2   17 B2   18 B2   19 B2   20 B2   21 B2   22 B2                 
  2.316   2.408   2.436   2.505   2.578   2.678   2.820   2.862
 23 B2   24 B2   25 B2   26 B2   27 B2   28 B2   29 B2   30 B2                 
  2.949   2.989   3.018   3.208   3.260   3.281   3.477   3.558
 31 B2   32 B2   33 B2   34 B2   35 B2   36 B2   37 B2   38 B2                 
  3.647   3.700   3.719   3.999   4.084   4.139   4.177   4.341
 39 B2   40 B2   41 B2   42 B2   43 B2   44 B2   45 B2   46 B2                 
  4.473   4.615   4.718   5.018   5.037   5.237   5.714
 47 B2   48 B2   49 B2   50 B2   51 B2   52 B2   53 B2                         

 Beta MOs, Unrestricted
 -- Occupied --                  
-104.84  -11.30  -11.25  -11.25  -11.25  -10.57   -8.03  -11.25
  1 A1    2 A1    3 A1    4 A1    5 A1    6 A1    7 A1    1 B1                 
-11.247  -8.030  -8.030  -1.196  -1.123  -0.980  -0.820  -0.708
  2 B1    3 B1    1 B2    8 A1    9 A1   10 A1   11 A1   12 A1                 
 -0.653  -0.583  -0.518  -0.358  -1.037  -0.838  -0.644  -0.610
 13 A1   14 A1   15 A1    1 A2    4 B1    5 B1    6 B1    7 B1                 
 -0.514  -0.452  -0.546  -0.469  -0.320
  8 B1    9 B1    2 B2    3 B2    4 B2                                         
 -- Virtual --                   
  0.142   0.175   0.204   0.230   0.306   0.393   0.402   0.439
 16 A1   17 A1   18 A1   19 A1   20 A1   21 A1   22 A1   23 A1                 
  0.500   0.506   0.546   0.562   0.600   0.625   0.657   0.683
 24 A1   25 A1   26 A1   27 A1   28 A1   29 A1   30 A1   31 A1                 
  0.728   0.822   0.869   0.971   0.975   0.999   1.074   1.100
 32 A1   33 A1   34 A1   35 A1   36 A1   37 A1   38 A1   39 A1                 
  1.215   1.268   1.327   1.344   1.403   1.485   1.550   1.592
 40 A1   41 A1   42 A1   43 A1   44 A1   45 A1   46 A1   47 A1                 
  1.647   1.684   1.739   1.930   2.111   2.183   2.264   2.308
 48 A1   49 A1   50 A1   51 A1   52 A1   53 A1   54 A1   55 A1                 
  2.364   2.431   2.479   2.617   2.705   2.739   2.761   2.826
 56 A1   57 A1   58 A1   59 A1   60 A1   61 A1   62 A1   63 A1                 
  2.894   3.043   3.108   3.122   3.241   3.314   3.365   3.386
 64 A1   65 A1   66 A1   67 A1   68 A1   69 A1   70 A1   71 A1                 
  3.398   3.430   3.459   3.622   3.646   3.735   3.805   3.885
 72 A1   73 A1   74 A1   75 A1   76 A1   77 A1   78 A1   79 A1                 
  3.968   4.067   4.113   4.121   4.222   4.344   4.459   4.473
 80 A1   81 A1   82 A1   83 A1   84 A1   85 A1   86 A1   87 A1                 
  4.520   4.580   4.652   4.705   4.789   4.994   5.074   5.205
 88 A1   89 A1   90 A1   91 A1   92 A1   93 A1   94 A1   95 A1                 
  5.336   5.415   5.478   5.884   5.897   6.082   6.417   6.588
 96 A1   97 A1   98 A1   99 A1  100 A1  101 A1  102 A1  103 A1                 
  6.785   8.972  12.242  13.163  15.900   0.118   0.460   0.552
104 A1  105 A1  106 A1  107 A1  108 A1    2 A2    3 A2    4 A2                 
  0.656   0.837   0.852   0.953   1.207   1.276   1.497   1.573
  5 A2    6 A2    7 A2    8 A2    9 A2   10 A2   11 A2   12 A2                 
  1.791   2.251   2.368   2.456   2.554   2.706   2.956   3.041
 13 A2   14 A2   15 A2   16 A2   17 A2   18 A2   19 A2   20 A2                 
  3.106   3.231   3.357   3.431   3.458   3.636   3.680   3.772
 21 A2   22 A2   23 A2   24 A2   25 A2   26 A2   27 A2   28 A2                 
  3.983   4.056   4.130   4.190   4.415   4.567   4.639   5.094
 29 A2   30 A2   31 A2   32 A2   33 A2   34 A2   35 A2   36 A2                 
  5.112   5.378   0.165   0.206   0.344   0.376   0.441   0.487
 37 A2   38 A2   10 B1   11 B1   12 B1   13 B1   14 B1   15 B1                 
  0.515   0.584   0.591   0.641   0.694   0.732   0.814   0.877
 16 B1   17 B1   18 B1   19 B1   20 B1   21 B1   22 B1   23 B1                 
  0.924   1.017   1.022   1.105   1.259   1.371   1.417   1.473
 24 B1   25 B1   26 B1   27 B1   28 B1   29 B1   30 B1   31 B1                 
  1.497   1.529   1.584   1.629   1.738   1.992   2.131   2.227
 32 B1   33 B1   34 B1   35 B1   36 B1   37 B1   38 B1   39 B1                 
  2.357   2.422   2.444   2.579   2.639   2.726   2.772   2.835
 40 B1   41 B1   42 B1   43 B1   44 B1   45 B1   46 B1   47 B1                 
  2.897   3.042   3.140   3.224   3.299   3.338   3.378   3.400
 48 B1   49 B1   50 B1   51 B1   52 B1   53 B1   54 B1   55 B1                 
  3.515   3.581   3.659   3.686   3.755   3.963   4.094   4.114
 56 B1   57 B1   58 B1   59 B1   60 B1   61 B1   62 B1   63 B1                 
  4.147   4.245   4.368   4.446   4.502   4.534   4.672   4.722
 64 B1   65 B1   66 B1   67 B1   68 B1   69 B1   70 B1   71 B1                 
  4.857   5.052   5.076   5.304   5.348   5.500   5.583   5.912
 72 B1   73 B1   74 B1   75 B1   76 B1   77 B1   78 B1   79 B1                 
  6.256   6.308   6.371   7.145  12.835  13.858   0.108   0.307
 80 B1   81 B1   82 B1   83 B1   84 B1   85 B1    5 B2    6 B2                 
  0.424   0.473   0.525   0.573   0.597   0.672   0.791   0.925
  7 B2    8 B2    9 B2   10 B2   11 B2   12 B2   13 B2   14 B2                 
  1.076   1.171   1.199   1.279   1.473   1.567   1.752   2.233
 15 B2   16 B2   17 B2   18 B2   19 B2   20 B2   21 B2   22 B2                 
  2.316   2.408   2.436   2.505   2.578   2.678   2.820   2.862
 23 B2   24 B2   25 B2   26 B2   27 B2   28 B2   29 B2   30 B2                 
  2.949   2.989   3.018   3.208   3.260   3.281   3.477   3.558
 31 B2   32 B2   33 B2   34 B2   35 B2   36 B2   37 B2   38 B2                 
  3.647   3.700   3.719   3.999   4.084   4.139   4.177   4.341
 39 B2   40 B2   41 B2   42 B2   43 B2   44 B2   45 B2   46 B2                 
  4.473   4.615   4.718   5.018   5.037   5.237   5.714
 47 B2   48 B2   49 B2   50 B2   51 B2   52 B2   53 B2                         
 --------------------------------------------------------------

          Ground-State Mulliken Net Atomic Charges

     Atom                 Charge (a.u.)    Spin (a.u.)
  --------------------------------------------------------
      1 H                     0.222390       0.000476
      2 C                    -0.079628      -0.028319
      3 C                    -0.092297      -0.020268
      4 H                     0.219392       0.002719
      5 C                    -0.024056      -0.365699
      6 H                     0.223756       0.014842
      7 C                    -0.092297      -0.020268
      8 H                     0.219392       0.002719
      9 C                    -0.079628      -0.028319
     10 H                     0.222390       0.000476
     11 C                     0.082309      -0.362294
     12 Cl                    0.178274      -0.196065
  --------------------------------------------------------
  Sum of atomic charges =     1.000000
  Sum of spin   charges =    -1.000000

 -----------------------------------------------------------------
                    Cartesian Multipole Moments
 -----------------------------------------------------------------
    Charge (ESU x 10^10)
                 4.8032
    Dipole Moment (Debye)
         X       0.0000      Y      -0.0000      Z      -2.8249
       Tot       2.8249
    Quadrupole Moments (Debye-Ang)
        XX     -32.9843     XY      -0.0000     YY     -46.8115
        XZ      -0.0000     YZ       0.0000     ZZ     -24.2726
    Octopole Moments (Debye-Ang^2)
       XXX       0.0000    XXY      -0.0000    XYY      -0.0000
       YYY      -0.0000    XXZ      -6.4575    XYZ       0.0000
       YYZ       6.6248    XZZ       0.0000    YZZ      -0.0000
       ZZZ     -11.1321
    Hexadecapole Moments (Debye-Ang^3)
      XXXX    -233.7555   XXXY      -0.0000   XXYY     -62.4782
      XYYY      -0.0000   YYYY     -49.6899   XXXZ      -0.0000
      XXYZ      -0.0000   XYYZ      -0.0000   YYYZ      -0.0000
      XXZZ    -147.7918   XYZZ       0.0000   YYZZ    -137.5390
      XZZZ      -0.0000   YZZZ       0.0000   ZZZZ    -574.7757
 -----------------------------------------------------------------
Archival summary:
1\1\node20\OPT\ProcedureUnspecified\BasisUnspecified\l165\krylov\ThuSep622:59:372018ThuSep622:59:372018\0\\#,OPT,ProcedureUnspecified,BasisUnspecified,\\0,1\Cl\C,1,1.67234\C,2,1.42621,1,119.028\H,3,1.07964,2,119.225,1,-0,0\C,3,1.36913,2,118.571,1,-180,0\H,5,1.07947,3,120.589,2,-180,0\C,5,1.41607,3,119.655,2,-0,0\H,7,1.08121,5,119.198,3,-180,0\C,7,1.41607,5,121.603,3,-0,0\H,9,1.07947,7,119.756,5,-180,0\C,9,1.36913,7,119.655,5,-0,0\H,11,1.07964,9,122.204,7,-180,0\\HF=-689.706713\\@

 Total job time:  80566.47s(wall), 533172.79s(cpu) 
 Thu Sep  6 22:59:38 2018

        *************************************************************
        *                                                           *
        *  Thank you very much for using Q-Chem.  Have a nice day.  *
        *                                                           *
        *************************************************************


