Q-Chem Developer Version!
                  Welcome to Q-Chem
     A Quantum Leap Into The Future Of Chemistry


 Q-Chem 5.1, Q-Chem, Inc., Pleasanton, CA (2018)

 Yihan Shao,  Zhengting Gan,  E. Epifanovsky,  A. T. B. Gilbert,  M. Wormit,  
 J. Kussmann,  A. W. Lange,  A. Behn,  Jia Deng,  Xintian Feng,  D. Ghosh,  
 M. Goldey,  P. R. Horn,  L. D. Jacobson,  I. Kaliman,  T. Kus,  A. Landau,  
 Jie Liu,  E. I. Proynov,  R. M. Richard,  R. P. Steele,  E. J. Sundstrom,  
 H. L. Woodcock III,  P. M. Zimmerman,  D. Zuev,  B. Albrecht,  E. Alguire,  
 S. A. Baeppler,  D. Barton,  Z. Benda,  Y. A. Bernard,  E. J. Berquist,  
 K. B. Bravaya,  H. Burton,  D. Casanova,  Chun-Min Chang,  Yunqing Chen,  
 A. Chien,  K. D. Closser,  M. P. Coons,  S. Coriani,  S. Dasgupta,  
 A. L. Dempwolff,  M. Diedenhofen,  Hainam Do,  R. G. Edgar,  Po-Tung Fang,  
 S. Faraji,  S. Fatehi,  Qingguo Feng,  K. D. Fenk,  J. Fosso-Tande,  
 Qinghui Ge,  A. Ghysels,  G. Gidofalvi,  J. Gomes,  J. Gonthier,  A. Gunina,  
 D. Hait,  M. W. D. Hanson-Heine,  P. H. P. Harbach,  A. W. Hauser,  
 J. E. Herr,  E. G. Hohenstein,  Z. C. Holden,  Kerwin Hui,  B. C. Huynh,  
 T.-C. Jagau,  Hyunjun Ji,  B. Kaduk,  K. Khistyaev,  Jaehoon Kim,  
 P. Klunzinger,  K. Koh,  D. Kosenkov,  L. Koulias,  T. Kowalczyk,  
 C. M. Krauter,  A. Kunitsa,  Ka Un Lao,  A. Laurent,  K. V. Lawler,  
 Joonho Lee,  D. Lefrancois,  S. Lehtola,  D. S. Levine,  Yi-Pei Li,  
 You-Sheng Lin,  Fenglai Liu,  E. Livshits,  A. Luenser,  P. Manohar,  
 E. Mansoor,  S. F. Manzer,  Shan-Ping Mao,  Yuezhi Mao,  N. Mardirossian,  
 A. V. Marenich,  T. Markovich,  L. A. Martinez-Martinez,  S. A. Maurer,  
 N. J. Mayhall,  S. C. McKenzie,  J.-M. Mewes,  A. F. Morrison,  
 J. W. Mullinax,  K. Nanda,  T. S. Nguyen-Beck,  R. Olivares-Amaya,  
 J. A. Parkhill,  T. M. Perrine,  F. Plasser,  P. Pokhilko,  S. Prager,  
 A. Prociuk,  E. Ramos,  D. R. Rehn,  F. Rob,  M. Schneider,  N. Sergueev,  
 S. M. Sharada,  S. Sharma,  D. W. Small,  T. Stauch,  T. Stein,  
 Yu-Chuan Su,  A. J. W. Thom,  A. Tkatchenko,  T. Tsuchimochi,  N. M. Tubman,  
 L. Vogt,  M. L. Vidal,  O. Vydrov,  M. A. Watson,  J. Wenzel,  
 M. de Wergifosse,  T. A. Wesolowski,  A. White,  J. Witte,  A. Yamada,  
 Jun Yang,  K. Yao,  S. Yeganeh,  S. R. Yost,  Zhi-Qiang You,  A. Zech,  
 Igor Ying Zhang,  Xing Zhang,  Yan Zhao,  Ying Zhu,  B. R. Brooks,  
 G. K. L. Chan,  C. J. Cramer,  M. S. Gordon,  W. J. Hehre,  A. Klamt,  
 M. W. Schmidt,  C. D. Sherrill,  D. G. Truhlar,  A. Aspuru-Guzik,  R. Baer,  
 A. T. Bell,  N. A. Besley,  Jeng-Da Chai,  A. E. DePrince, III,  
 R. A. DiStasio Jr.,  A. Dreuw,  B. D. Dunietz,  T. R. Furlani,  
 Chao-Ping Hsu,  Yousung Jung,  Jing Kong,  D. S. Lambrecht,  WanZhen Liang,  
 C. Ochsenfeld,  V. A. Rassolov,  L. V. Slipchenko,  J. E. Subotnik,  
 T. Van Voorhis,  J. M. Herbert,  A. I. Krylov,  P. M. W. Gill,  M. Head-Gordon

 Contributors to earlier versions of Q-Chem not listed above: 
 R. D. Adamson,  B. Austin,  J. Baker,  G. J. O. Beran,  K. Brandhorst,  
 S. T. Brown,  E. F. C. Byrd,  A. K. Chakraborty,  C.-L. Cheng,  
 Siu Hung Chien,  D. M. Chipman,  D. L. Crittenden,  H. Dachsel,  
 R. J. Doerksen,  A. D. Dutoi,  L. Fusti-Molnar,  W. A. Goddard III,  
 A. Golubeva-Zadorozhnaya,  S. R. Gwaltney,  G. Hawkins,  A. Heyden,  
 S. Hirata,  G. Kedziora,  F. J. Keil,  C. Kelley,  Jihan Kim,  R. A. King,  
 R. Z. Khaliullin,  P. P. Korambath,  W. Kurlancheek,  A. M. Lee,  M. S. Lee,  
 S. V. Levchenko,  Ching Yeh Lin,  D. Liotard,  R. C. Lochan,  I. Lotan,  
 P. E. Maslen,  N. Nair,  D. P. O'Neill,  D. Neuhauser,  E. Neuscamman,  
 C. M. Oana,  R. Olson,  B. Peters,  R. Peverati,  P. A. Pieniazek,  
 Y. M. Rhee,  J. Ritchie,  M. A. Rohrdanz,  E. Rosta,  N. J. Russ,  
 H. F. Schaefer III,  N. E. Schultz,  N. Shenvi,  A. C. Simmonett,  A. Sodt,  
 D. Stuck,  K. S. Thanthiriwatte,  V. Vanovschi,  Tao Wang,  A. Warshel,  
 C. F. Williams,  Q. Wu,  X. Xu,  W. Zhang

 Please cite Q-Chem as follows:
 Y. Shao et al., Mol. Phys. 113, 184-215 (2015)
 DOI: 10.1080/00268976.2014.952696

 Q-Chem 5.1.1 for Intel X86 EM64T Linux

 Parts of Q-Chem use Armadillo 8.300.2 (Tropical Shenanigans).
 http://arma.sourceforge.net/

 Q-Chem begins on Wed Sep  5 11:23:16 2018  

node3
Host: 0

     Scratch files written to /scratch/krylov/qchem20936//
Input Ideriv = 1
Curr. Ideriv = -1
Max.  Ideriv = 1

Checking the input file for inconsistencies... 	...done.

--------------------------------------------------------------
User input:
--------------------------------------------------------------
$molecule
0 1
  H    0.0000000    2.1527918    0.4822092
  C    0.0000000    1.2047582   -0.0651382
  C    0.0000000    1.2047582   -1.4562732
  H    0.0000000    2.1527918   -2.0036206
  C    0.0000000   -0.0000000   -2.1518406
  H    0.0000000   -0.0000000   -3.2465355
  C    0.0000000   -1.2047582   -1.4562732
  H   -0.0000000   -2.1527918   -2.0036206
  C   -0.0000000   -1.2047582   -0.0651382
  H   -0.0000000   -2.1527918    0.4822092
  C   -0.0000000    0.0000000    0.6304292
 Cl   -0.0000000    0.0000000    1.7251241
$end

$rem
   AUXILIARY_BASIS  =  RIMP2-cc-PVTZ
   BASIS  =  cc-pcVTZ
   GUI  =  2
   JOB_TYPE  =  Optimization
   METHOD  =  RI-MP2
   SCF_CONVERGENCE  =  8
   n_frozen_core = FC
$end


--------------------------------------------------------------
 ----------------------------------------------------------------
             Standard Nuclear Orientation (Angstroms)
    I     Atom           X                Y                Z
 ----------------------------------------------------------------
    1      H      -2.1527918000     0.0000000000     0.5571687483
    2      C      -1.2047582000     0.0000000000     0.0098213483
    3      C      -1.2047582000    -0.0000000000    -1.3813136517
    4      H      -2.1527918000     0.0000000000    -1.9286610517
    5      C       0.0000000000    -0.0000000000    -2.0768810517
    6      H       0.0000000000    -0.0000000000    -3.1715759517
    7      C       1.2047582000    -0.0000000000    -1.3813136517
    8      H       2.1527918000    -0.0000000000    -1.9286610517
    9      C       1.2047582000    -0.0000000000     0.0098213483
   10      H       2.1527918000    -0.0000000000     0.5571687483
   11      C      -0.0000000000     0.0000000000     0.7053887483
   12      Cl      0.0000000000     0.0000000000     1.8000836483
 ----------------------------------------------------------------
 Molecular Point Group                 C2v   NOp =  4
 Largest Abelian Subgroup              C2v   NOp =  4
 Nuclear Repulsion Energy =   352.5588671665 hartrees
 There are       29 alpha and       29 beta electrons
 Requested basis set is cc-pCVTZ
 There are 139 shells and 387 basis functions

 Total QAlloc Memory Limit   2000 MB
 Mega-Array Size       188 MB
 MEM_STATIC part       192 MB
 Requested basis set is rimp2-cc-pVTZ
 There are 220 shells and 758 basis functions
 A cutoff of  1.0D-11 yielded   8576 shell pairs
 There are     65834 function pairs (     84802 Cartesian)

 -------------------------------------------------------
 OpenMP Integral Computing Module                       
 Release: version 1.0, May 2013, Q-Chem Inc. Pittsburgh 
 -------------------------------------------------------
 Integral Job Info:
 Integral job number is                      11
 Integral operator is                         1
 short-range coefficients                     0
 long-range coefficients              100000000
 Omega coefficients                           0
 if combine SR and LR in K                    0
 Integral screening is                        0
 Integral computing path is                   2
 max size of driver memory is            800000
 size of driver memory is                776718
 size of scratch memory is             29531563
 max col of scratch BK array              10000
 max len of scratch array in speh3          662
 max len of scratch index in speh4           32
 max int batch size is                      520
 min int batch size is                       52
 fixed nKL is                                31
 max L of basis functions is                  3
 order of int derivative is                   0
 number of shells is                        139
 number of basis is                         438
 number of cartesian basis is               438
 number of contracted shell pairs          8576
 number of primitive shell pairs          26118
 maxK2 (contraction) of shell pair          169
 max number of K2 of shell pair               1
 max number of CS2 of shell pair           1506
 max number of PS2 of shell pair           2384
 mem total for path MDJ                  719140
 -------------------------------------------------------
 Smallest overlap matrix eigenvalue = 3.08E-05

 Scale SEOQF with 1.000000e-01/1.000000e+00/1.000000e-01

 Standard Electronic Orientation quadrupole field applied
 Nucleus-field energy     =    -0.0000000115 hartrees
 Guess from superposition of atomic densities
 Warning:  Energy on first SCF cycle will be non-variational
 SAD guess density has 58.000000 electrons

 -----------------------------------------------------------------------
  General SCF calculation program by
  Eric Jon Sundstrom, Paul Horn, Yuezhi Mao, Dmitri Zuev, Alec White,
  David Stuck, Shaama M.S., Shane Yost, Joonho Lee, David Small,
  Daniel Levine, Susi Lehtola, Hugh Burton, Evgeny Epifanovsky
 -----------------------------------------------------------------------
 Hartree-Fock
 using 4 threads for integral computing
 -------------------------------------------------------
 OpenMP Integral computing Module                
 Release: version 2.0, May 2017, Q-Chem Inc. Pleasanton 
 -------------------------------------------------------
 A restricted SCF calculation will be
 performed using DIIS
 SCF converges when DIIS error is below 1.0e-08
 ---------------------------------------
  Cycle       Energy         DIIS error
 ---------------------------------------
    1    -694.4846951567      3.58e-02  
    2    -688.9419772031      1.89e-03  
    3    -689.0155773562      6.99e-04  
    4    -689.0246678929      3.35e-04  
    5    -689.0270328648      4.34e-05  
    6    -689.0271184210      2.18e-05  
    7    -689.0271440446      1.14e-05  
    8    -689.0271534052      5.54e-06  
    9    -689.0271572947      2.27e-06  
   10    -689.0271579065      6.65e-07  
   11    -689.0271579383      2.02e-07  
   12    -689.0271579394      3.97e-08  
   13    -689.0271579400      8.80e-09  Convergence criterion met
 ---------------------------------------
 SCF time:   CPU 1536.72s  wall 386.00s 
 SCF   energy in the final basis set =     -689.0271579400
 Total energy in the final basis set =     -689.0271579400


 --------------------------------------------------------------
  Generalized many-body perturbation theory program
  by Joonho Lee, Fazle Rob, Xintian Feng, Evgeny Epifanovsky

         1      0.00045213     MINRES Iteration
         2      0.00019469     MINRES Iteration
         3      0.00010105     MINRES Iteration
         4      0.00004187     MINRES Iteration
         5      0.00001551     MINRES Iteration
         6      0.00000502     MINRES Iteration
         7      0.00000171     MINRES Iteration
         8      0.00000049     MINRES Done

 In RI-MP2 calculation: 
 # of frozen core orbitals: 11

 Components of the RIMP2 correlation energy:
        aaaa    correlation energy =        -0.1528090631 a.u.
        abab    correlation energy =        -0.8615467140 a.u.
        bbbb    correlation energy =        -0.1528090631 a.u.
        non-Brillouin singles      =        -0.0000000000 a.u.
        total same-spin energy     =        -0.3056181262 a.u.
        total opposite-spin energy =        -0.8615467140 a.u.

 Total  RIMP2   correlation energy =        -1.1671648402 a.u.
        RIMP2         total energy =      -690.1943227802 a.u.

 RI-MP2 Gradient Time:  CPU 5134.58 s  wall 1290.17 s

 --------------------------------------------------------------
             Orbital Energies (a.u.) and Symmetries
 --------------------------------------------------------------

 Alpha MOs, Restricted
 -- Occupied --                  
-104.82  -11.27  -11.24  -11.24  -11.21  -11.21  -11.21  -10.59
  1 A1    2 A1    3 A1    1 B1    2 B1    4 A1    5 A1    6 A1                 
 -8.069  -8.051  -8.050  -1.459  -1.125  -1.029  -0.958  -0.888
  7 A1    1 B2    3 B1    8 A1    9 A1    4 B1   10 A1    5 B1                 
 -0.798  -0.723  -0.719  -0.695  -0.667  -0.600  -0.583  -0.519
 11 A1    2 B2   12 A1    6 B1   13 A1   14 A1    7 B1    8 B1                 
 -0.505  -0.463  -0.393  -0.344  -0.265
 15 A1    3 B2    9 B1    1 A2    4 B2                                         
 -- Virtual --                   
  0.116   0.120   0.151   0.170   0.180   0.211   0.212   0.258
  5 B2    2 A2   16 A1   10 B1   17 A1   11 B1   18 A1   19 A1                 
  0.285   0.299   0.302   0.340   0.383   0.398   0.433   0.438
  6 B2   20 A1   12 B1   21 A1   13 B1   22 A1    7 B2   23 A1                 
  0.452   0.462   0.475   0.495   0.495   0.519   0.537   0.539
 14 B1    3 A2    8 B2   15 B1   24 A1    9 B2    4 A2   16 B1                 
  0.540   0.553   0.558   0.583   0.598   0.600   0.604   0.617
 25 A1   26 A1   10 B2   17 B1    5 A2   18 B1   27 A1   28 A1                 
  0.634   0.643   0.670   0.701   0.703   0.710   0.721   0.744
 11 B2   19 B1   29 A1   30 A1   12 B2   20 B1   31 A1   32 A1                 
  0.749   0.795   0.810   0.856   0.859   0.891   0.893   0.893
 21 B1   33 A1   22 B1   13 B2    6 A2   34 A1   23 B1    7 A2                 
  0.925   0.933   0.960   0.994   1.001   1.014   1.024   1.029
 24 B1   35 A1   14 B2    8 A2   36 A1   25 B1   37 A1   38 A1                 
  1.056   1.114   1.124   1.187   1.197   1.214   1.226   1.239
 26 B1   39 A1   15 B2   27 B1   16 B2   17 B2   40 A1    9 A2                 
  1.263   1.305   1.306   1.317   1.335   1.361   1.403   1.448
 41 A1   10 A2   28 B1   42 A1   18 B2   29 B1   43 A1   30 B1                 
  1.477   1.478   1.490   1.500   1.515   1.522   1.544   1.577
 19 B2   31 B1   44 A1   32 B1   11 A2   45 A1   33 B1   46 A1                 
  1.587   1.593   1.614   1.616   1.636   1.646   1.662   1.689
 47 A1   12 A2   34 B1   48 A1   49 A1   20 B2   35 B1   36 B1                 
  1.733   1.779   1.793   1.848   1.926   1.945   2.060   2.077
 50 A1   13 A2   21 B2   51 A1   37 B1   52 A1   38 B1   22 B2                 
  2.082   2.115   2.122   2.161   2.281   2.300   2.302   2.344
 53 A1   14 A2   39 B1   54 A1   23 B2   24 B2   55 A1   56 A1                 
  2.360   2.370   2.377   2.396   2.455   2.457   2.491   2.497
 40 B1   15 A2   41 B1   25 B2   26 B2   16 A2   42 B1   57 A1                 
  2.513   2.539   2.561   2.578   2.611   2.638   2.680   2.749
 58 A1   43 B1   59 A1   17 A2   27 B2   44 B1   60 A1   61 A1                 
  2.761   2.771   2.795   2.835   2.850   2.916   2.919   2.941
 45 B1   46 B1   28 B2   29 B2   62 A1   18 A2   47 B1   63 A1                 
  2.949   2.952   2.963   2.988   2.999   3.013   3.018   3.066
 64 A1   30 B2   48 B1   19 A2   31 B2   65 A1   32 B2   20 A2                 
  3.069   3.095   3.106   3.130   3.142   3.169   3.183   3.214
 49 B1   66 A1   50 B1   67 A1   33 B2   21 A2   68 A1   34 B2                 
  3.236   3.256   3.269   3.272   3.290   3.305   3.340   3.343
 22 A2   51 B1   35 B2   69 A1   70 A1   52 B1   53 B1   71 A1                 
  3.381   3.398   3.404   3.432   3.441   3.441   3.480   3.489
 23 A2   72 A1   36 B2   73 A1   24 A2   54 B1   74 A1   55 B1                 
  3.495   3.498   3.522   3.526   3.551   3.605   3.623   3.630
 37 B2   25 A2   56 B1   75 A1   57 B1   38 B2   76 A1   58 B1                 
  3.648   3.669   3.687   3.689   3.710   3.727   3.780   3.852
 39 B2   26 A2   27 A2   59 B1   77 A1   40 B2   78 A1   79 A1                 
  3.882   3.894   3.914   3.923   3.923   3.979   3.981   4.013
 28 A2   80 A1   60 B1   81 A1   61 B1   41 B2   62 B1   29 A2                 
  4.014   4.050   4.065   4.086   4.090   4.096   4.155   4.156
 82 A1   63 B1   64 B1   83 A1   30 A2   42 B2   84 A1   43 B2                 
  4.162   4.169   4.189   4.203   4.244   4.259   4.280   4.311
 65 B1   31 A2   44 B2   32 A2   85 A1   66 B1   86 A1   67 B1                 
  4.390   4.423   4.427   4.442   4.480   4.516   4.560   4.568
 45 B2   68 B1   33 A2   87 A1   46 B2   88 A1   69 B1   89 A1                 
  4.596   4.598   4.606   4.628   4.654   4.662   4.665   4.673
 90 A1   47 B2   70 B1   91 A1   34 A2   48 B2   92 A1   71 B1                 
  4.684   4.765   4.809   4.824   4.911   4.994   5.013   5.046
 35 A2   93 A1   72 B1   49 B2   94 A1   73 B1   50 B2   51 B2                 
  5.091   5.137   5.142   5.148   5.198   5.271   5.298   5.302
 36 A2   95 A1   96 A1   74 B1   37 A2   52 B2   97 A1   75 B1                 
  5.350   5.380   5.476   5.526   5.594   5.601   5.607   5.634
 38 A2   76 B1   98 A1   77 B1   78 B1   99 A1  100 A1   79 B1                 
  5.733   5.757   6.049   6.082   6.106   6.172   6.183   6.194
101 A1   53 B2   80 B1  102 A1  103 A1   81 B1  104 A1   82 B1                 
  6.477   6.550   6.595   6.611   6.644   7.191   7.269  10.292
105 A1   83 B1  106 A1  107 A1   84 B1  108 A1   85 B1   39 A2                 
 10.404  10.718  11.036  11.178  12.740  13.026  13.711  15.330
109 A1   54 B2   86 B1  110 A1   55 B2   87 B1  111 A1   56 B2                 
 15.450  15.495  15.560  15.560  15.778  16.378  16.430  16.482
 40 A2   57 B2   41 A2   58 B2   59 B2  112 A1   88 B1  113 A1                 
 16.511  16.565  16.627  16.749  16.766  16.776  16.794  16.833
 89 B1   90 B1  114 A1   91 B1  115 A1  116 A1   92 B1   93 B1                 
 16.871  16.956  17.119  17.129  17.198  17.633  17.860  19.207
117 A1  118 A1   94 B1  119 A1   95 B1  120 A1  121 A1  122 A1                 
 36.899  36.902  36.909  36.915  36.917  36.938  36.957  41.479
 60 B2   96 B1   42 A2  123 A1   61 B2   97 B1  124 A1   43 A2                 
 41.480  41.517  41.522  41.526  41.534  41.537  41.548  41.550
125 A1   44 A2   62 B2   63 B2   98 B1   45 A2  126 A1   99 B1                 
 41.557  41.569  41.591  41.596  41.599  41.603  41.607  41.626
127 A1   64 B2   46 A2   65 B2   47 A2   66 B2  100 B1   48 A2                 
 41.650  41.724  41.796  41.822  41.832  41.837  41.939  41.944
 67 B2  128 A1  101 B1  129 A1  102 B1  130 A1  131 A1  103 B1                 
 41.964  41.971  41.977  41.985  42.017  46.476  46.536  46.718
132 A1  104 B1  105 B1  133 A1  134 A1   49 A2  135 A1   68 B2                 
 46.882  47.113  55.128  55.424  56.318  81.025  81.111  81.151
106 B1  136 A1   69 B2  107 B1  137 A1   70 B2   50 A2   71 B2                 
 81.198  81.201  81.353  81.816  81.852  81.864  81.926  81.944
 51 A2   72 B2   73 B2  108 B1  138 A1  109 B1  110 B1  139 A1                 
 82.056  82.058  82.092  82.096  82.201  82.437  82.669  85.315
140 A1  111 B1  112 B1  141 A1  142 A1  113 B1  143 A1  144 A1                 
 86.063  86.251  86.717  87.004  87.967 105.300
114 B1  145 A1  115 B1  146 A1  147 A1  148 A1                                 

 Beta MOs, Restricted
 -- Occupied --                  
-104.82  -11.27  -11.24  -11.24  -11.21  -11.21  -11.21  -10.59
  1 A1    2 A1    3 A1    1 B1    2 B1    4 A1    5 A1    6 A1                 
 -8.069  -8.051  -8.050  -1.459  -1.125  -1.029  -0.958  -0.888
  7 A1    1 B2    3 B1    8 A1    9 A1    4 B1   10 A1    5 B1                 
 -0.798  -0.723  -0.719  -0.695  -0.667  -0.600  -0.583  -0.519
 11 A1    2 B2   12 A1    6 B1   13 A1   14 A1    7 B1    8 B1                 
 -0.505  -0.463  -0.393  -0.344  -0.265
 15 A1    3 B2    9 B1    1 A2    4 B2                                         
 -- Virtual --                   
  0.116   0.120   0.151   0.170   0.180   0.211   0.212   0.258
  5 B2    2 A2   16 A1   10 B1   17 A1   11 B1   18 A1   19 A1                 
  0.285   0.299   0.302   0.340   0.383   0.398   0.433   0.438
  6 B2   20 A1   12 B1   21 A1   13 B1   22 A1    7 B2   23 A1                 
  0.452   0.462   0.475   0.495   0.495   0.519   0.537   0.539
 14 B1    3 A2    8 B2   15 B1   24 A1    9 B2    4 A2   16 B1                 
  0.540   0.553   0.558   0.583   0.598   0.600   0.604   0.617
 25 A1   26 A1   10 B2   17 B1    5 A2   18 B1   27 A1   28 A1                 
  0.634   0.643   0.670   0.701   0.703   0.710   0.721   0.744
 11 B2   19 B1   29 A1   30 A1   12 B2   20 B1   31 A1   32 A1                 
  0.749   0.795   0.810   0.856   0.859   0.891   0.893   0.893
 21 B1   33 A1   22 B1   13 B2    6 A2   34 A1   23 B1    7 A2                 
  0.925   0.933   0.960   0.994   1.001   1.014   1.024   1.029
 24 B1   35 A1   14 B2    8 A2   36 A1   25 B1   37 A1   38 A1                 
  1.056   1.114   1.124   1.187   1.197   1.214   1.226   1.239
 26 B1   39 A1   15 B2   27 B1   16 B2   17 B2   40 A1    9 A2                 
  1.263   1.305   1.306   1.317   1.335   1.361   1.403   1.448
 41 A1   10 A2   28 B1   42 A1   18 B2   29 B1   43 A1   30 B1                 
  1.477   1.478   1.490   1.500   1.515   1.522   1.544   1.577
 19 B2   31 B1   44 A1   32 B1   11 A2   45 A1   33 B1   46 A1                 
  1.587   1.593   1.614   1.616   1.636   1.646   1.662   1.689
 47 A1   12 A2   34 B1   48 A1   49 A1   20 B2   35 B1   36 B1                 
  1.733   1.779   1.793   1.848   1.926   1.945   2.060   2.077
 50 A1   13 A2   21 B2   51 A1   37 B1   52 A1   38 B1   22 B2                 
  2.082   2.115   2.122   2.161   2.281   2.300   2.302   2.344
 53 A1   14 A2   39 B1   54 A1   23 B2   24 B2   55 A1   56 A1                 
  2.360   2.370   2.377   2.396   2.455   2.457   2.491   2.497
 40 B1   15 A2   41 B1   25 B2   26 B2   16 A2   42 B1   57 A1                 
  2.513   2.539   2.561   2.578   2.611   2.638   2.680   2.749
 58 A1   43 B1   59 A1   17 A2   27 B2   44 B1   60 A1   61 A1                 
  2.761   2.771   2.795   2.835   2.850   2.916   2.919   2.941
 45 B1   46 B1   28 B2   29 B2   62 A1   18 A2   47 B1   63 A1                 
  2.949   2.952   2.963   2.988   2.999   3.013   3.018   3.066
 64 A1   30 B2   48 B1   19 A2   31 B2   65 A1   32 B2   20 A2                 
  3.069   3.095   3.106   3.130   3.142   3.169   3.183   3.214
 49 B1   66 A1   50 B1   67 A1   33 B2   21 A2   68 A1   34 B2                 
  3.236   3.256   3.269   3.272   3.290   3.305   3.340   3.343
 22 A2   51 B1   35 B2   69 A1   70 A1   52 B1   53 B1   71 A1                 
  3.381   3.398   3.404   3.432   3.441   3.441   3.480   3.489
 23 A2   72 A1   36 B2   73 A1   24 A2   54 B1   74 A1   55 B1                 
  3.495   3.498   3.522   3.526   3.551   3.605   3.623   3.630
 37 B2   25 A2   56 B1   75 A1   57 B1   38 B2   76 A1   58 B1                 
  3.648   3.669   3.687   3.689   3.710   3.727   3.780   3.852
 39 B2   26 A2   27 A2   59 B1   77 A1   40 B2   78 A1   79 A1                 
  3.882   3.894   3.914   3.923   3.923   3.979   3.981   4.013
 28 A2   80 A1   60 B1   81 A1   61 B1   41 B2   62 B1   29 A2                 
  4.014   4.050   4.065   4.086   4.090   4.096   4.155   4.156
 82 A1   63 B1   64 B1   83 A1   30 A2   42 B2   84 A1   43 B2                 
  4.162   4.169   4.189   4.203   4.244   4.259   4.280   4.311
 65 B1   31 A2   44 B2   32 A2   85 A1   66 B1   86 A1   67 B1                 
  4.390   4.423   4.427   4.442   4.480   4.516   4.560   4.568
 45 B2   68 B1   33 A2   87 A1   46 B2   88 A1   69 B1   89 A1                 
  4.596   4.598   4.606   4.628   4.654   4.662   4.665   4.673
 90 A1   47 B2   70 B1   91 A1   34 A2   48 B2   92 A1   71 B1                 
  4.684   4.765   4.809   4.824   4.911   4.994   5.013   5.046
 35 A2   93 A1   72 B1   49 B2   94 A1   73 B1   50 B2   51 B2                 
  5.091   5.137   5.142   5.148   5.198   5.271   5.298   5.302
 36 A2   95 A1   96 A1   74 B1   37 A2   52 B2   97 A1   75 B1                 
  5.350   5.380   5.476   5.526   5.594   5.601   5.607   5.634
 38 A2   76 B1   98 A1   77 B1   78 B1   99 A1  100 A1   79 B1                 
  5.733   5.757   6.049   6.082   6.106   6.172   6.183   6.194
101 A1   53 B2   80 B1  102 A1  103 A1   81 B1  104 A1   82 B1                 
  6.477   6.550   6.595   6.611   6.644   7.191   7.269  10.292
105 A1   83 B1  106 A1  107 A1   84 B1  108 A1   85 B1   39 A2                 
 10.404  10.718  11.036  11.178  12.740  13.026  13.711  15.330
109 A1   54 B2   86 B1  110 A1   55 B2   87 B1  111 A1   56 B2                 
 15.450  15.495  15.560  15.560  15.778  16.378  16.430  16.482
 40 A2   57 B2   41 A2   58 B2   59 B2  112 A1   88 B1  113 A1                 
 16.511  16.565  16.627  16.749  16.766  16.776  16.794  16.833
 89 B1   90 B1  114 A1   91 B1  115 A1  116 A1   92 B1   93 B1                 
 16.871  16.956  17.119  17.129  17.198  17.633  17.860  19.207
117 A1  118 A1   94 B1  119 A1   95 B1  120 A1  121 A1  122 A1                 
 36.899  36.902  36.909  36.915  36.917  36.938  36.957  41.479
 60 B2   96 B1   42 A2  123 A1   61 B2   97 B1  124 A1   43 A2                 
 41.480  41.517  41.522  41.526  41.534  41.537  41.548  41.550
125 A1   44 A2   62 B2   63 B2   98 B1   45 A2  126 A1   99 B1                 
 41.557  41.569  41.591  41.596  41.599  41.603  41.607  41.626
127 A1   64 B2   46 A2   65 B2   47 A2   66 B2  100 B1   48 A2                 
 41.650  41.724  41.796  41.822  41.832  41.837  41.939  41.944
 67 B2  128 A1  101 B1  129 A1  102 B1  130 A1  131 A1  103 B1                 
 41.964  41.971  41.977  41.985  42.017  46.476  46.536  46.718
132 A1  104 B1  105 B1  133 A1  134 A1   49 A2  135 A1   68 B2                 
 46.882  47.113  55.128  55.424  56.318  81.025  81.111  81.151
106 B1  136 A1   69 B2  107 B1  137 A1   70 B2   50 A2   71 B2                 
 81.198  81.201  81.353  81.816  81.852  81.864  81.926  81.944
 51 A2   72 B2   73 B2  108 B1  138 A1  109 B1  110 B1  139 A1                 
 82.056  82.058  82.092  82.096  82.201  82.437  82.669  85.315
140 A1  111 B1  112 B1  141 A1  142 A1  113 B1  143 A1  144 A1                 
 86.063  86.251  86.717  87.004  87.967 105.300
114 B1  145 A1  115 B1  146 A1  147 A1  148 A1                                 
 --------------------------------------------------------------

          Ground-State Mulliken Net Atomic Charges

     Atom                 Charge (a.u.)
  ----------------------------------------
      1 H                     0.086578
      2 C                    -0.150863
      3 C                    -0.127463
      4 H                     0.108232
      5 C                    -0.125129
      6 H                     0.107607
      7 C                    -0.127463
      8 H                     0.108232
      9 C                    -0.150863
     10 H                     0.086578
     11 C                    -0.016645
     12 Cl                    0.201199
  ----------------------------------------
  Sum of atomic charges =     0.000000

 -----------------------------------------------------------------
                    Cartesian Multipole Moments
 -----------------------------------------------------------------
    Charge (ESU x 10^10)
                -0.0000
    Dipole Moment (Debye)
         X      -0.0000      Y       0.0000      Z       0.3616
       Tot       0.3616
    Quadrupole Moments (Debye-Ang)
        XX     -43.4274     XY      -0.0000     YY     -49.9033
        XZ      -0.0000     YZ       0.0000     ZZ     -45.5351
    Octopole Moments (Debye-Ang^2)
       XXX       0.0000    XXY       0.0000    XYY       0.0000
       YYY       0.0000    XXZ       1.9595    XYZ      -0.0000
       YYZ       9.6632    XZZ      -0.0000    YZZ      -0.0000
       ZZZ       5.3543
    Hexadecapole Moments (Debye-Ang^3)
      XXXX    -288.1799   XXXY      -0.0000   XXYY     -68.5015
      XYYY       0.0000   YYYY     -55.8652   XXXZ      -0.0000
      XXYZ       0.0000   XYYZ      -0.0000   YYYZ       0.0000
      XXZZ    -151.6129   XYZZ       0.0000   YYZZ    -122.9044
      XZZZ       0.0000   YZZZ       0.0000   ZZZZ    -611.2798
 -----------------------------------------------------------------
 DrvMan is completing analytic gradient of the MP2 energy
 MP2 relaxed dipole moment
            1
    1  -0.0000000
    2   0.0000000
    3   0.1422738
	Magnitude:	 0.142 au	 0.362 Debye
 MP2 energy read as -690.194323
 Full Analytical Gradient of MP2 Energy (in au.)
             1             2             3             4             5
    1   -0.01062919    0.02732543    0.01006733   -0.00697730   -0.00000000
    2   -0.00000000    0.00000000    0.00000000   -0.00000000   -0.00000000
    3   -0.00160025    0.07778968    0.00082955   -0.00389541    0.01681989
             6             7             8             9            10
    1    0.00000000   -0.01006733    0.00697730   -0.02732543    0.01062919
    2    0.00000000    0.00000000   -0.00000000   -0.00000000   -0.00000000
    3   -0.00926757    0.00082955   -0.00389541    0.07778968   -0.00160025
            11            12
    1   -0.00000000    0.00000000
    2    0.00000000   -0.00000000
    3    1.81559282   -1.96939227
 Gradient time:  CPU 0.33 s  wall 0.27 s
 Geometry Optimization Parameters
   NAtoms,    NIC,     NZ,  NCons,   NDum,   NFix, NCnnct, MaxDiis
       12     107       0       0       0       0       0       0


** GEOMETRY OPTIMIZATION IN DELOCALIZED INTERNAL COORDINATES **
   Searching for a Minimum

   Optimization Cycle:   1

                       Coordinates (Angstroms)
     ATOM                X               Y               Z
      1  H        -2.1527918000    0.0000000000    0.5571687483
      2  C        -1.2047582000    0.0000000000    0.0098213483
      3  C        -1.2047582000    0.0000000000   -1.3813136517
      4  H        -2.1527918000    0.0000000000   -1.9286610517
      5  C         0.0000000000    0.0000000000   -2.0768810517
      6  H         0.0000000000    0.0000000000   -3.1715759517
      7  C         1.2047582000    0.0000000000   -1.3813136517
      8  H         2.1527918000    0.0000000000   -1.9286610517
      9  C         1.2047582000    0.0000000000    0.0098213483
     10  H         2.1527918000    0.0000000000    0.5571687483
     11  C         0.0000000000    0.0000000000    0.7053887483
     12  Cl        0.0000000000    0.0000000000    1.8000836483
   Point Group: c2v   Number of degrees of freedom:    11


   Energy is   -690.194322780


 Attempting to Generate Delocalized Internal Coordinates

 ** Taking Steepest Descent Step **
 Calculated Step too Large.  Step scaled by  0.215901
 Step Taken.  Stepsize is  0.300000

                             Maximum     Tolerance    Cnvgd?
         Gradient           1.268101      0.000300      NO
         Displacement       0.273785      0.001200      NO
         Energy change     *********      0.000001      NO


 New Cartesian Coordinates Obtained by Inverse Iteration

 Displacement from previous Coordinates is:  0.161656
 ----------------------------------------------------------------
             Standard Nuclear Orientation (Angstroms)
    I     Atom           X                Y                Z
 ----------------------------------------------------------------
    1      H      -2.1408504673     0.0000000000     0.5587256378
    2      C      -1.1963390386     0.0000000000     0.0072244603
    3      C      -1.2027708168     0.0000000000    -1.3839768238
    4      H      -2.1518995917     0.0000000000    -1.9275884731
    5      C       0.0000000000     0.0000000000    -2.0821630262
    6      H       0.0000000000     0.0000000000    -3.1757991051
    7      C       1.2027708168     0.0000000000    -1.3839768238
    8      H       2.1518995917     0.0000000000    -1.9275884731
    9      C       1.1963390386     0.0000000000     0.0072244603
   10      H       2.1408504673     0.0000000000     0.5587256378
   11      C       0.0000000000     0.0000000000     0.6549279230
   12      Cl      0.0000000000     0.0000000000     1.8653107853
 ----------------------------------------------------------------
 Molecular Point Group                 C2v   NOp =  4
 Largest Abelian Subgroup              C2v   NOp =  4
 Nuclear Repulsion Energy =   346.9376980578 hartrees
 There are       29 alpha and       29 beta electrons
 Applying Cartesian multipole field
    Component          Value
    ---------          -----
     (2,0,0)        1.00000E-11
     (0,2,0)        2.00000E-10
     (0,0,2)       -3.00000E-11
 Nucleus-field energy     =    -0.0000000119 hartrees
 Requested basis set is cc-pCVTZ
 There are 139 shells and 387 basis functions
 Requested basis set is rimp2-cc-pVTZ
 There are 220 shells and 758 basis functions
 A cutoff of  1.0D-11 yielded   8559 shell pairs
 There are     65577 function pairs (     84402 Cartesian)
 Smallest overlap matrix eigenvalue = 2.95E-05
 Guess MOs from SCF MO coefficient file

 -----------------------------------------------------------------------
  General SCF calculation program by
  Eric Jon Sundstrom, Paul Horn, Yuezhi Mao, Dmitri Zuev, Alec White,
  David Stuck, Shaama M.S., Shane Yost, Joonho Lee, David Small,
  Daniel Levine, Susi Lehtola, Hugh Burton, Evgeny Epifanovsky
 -----------------------------------------------------------------------
 Hartree-Fock
 using 4 threads for integral computing
 -------------------------------------------------------
 OpenMP Integral computing Module                
 Release: version 2.0, May 2017, Q-Chem Inc. Pleasanton 
 -------------------------------------------------------
 A restricted SCF calculation will be
 performed using DIIS
 SCF converges when DIIS error is below 1.0e-08
 ---------------------------------------
  Cycle       Energy         DIIS error
 ---------------------------------------
    1    -689.3296985755      1.26e-03  
    2    -689.3466107402      3.34e-04  
    3    -689.3483461501      1.48e-04  
    4    -689.3488252608      4.65e-05  
    5    -689.3489442777      2.32e-05  
    6    -689.3489833147      1.19e-05  
    7    -689.3489973336      4.46e-06  
    8    -689.3489994488      1.68e-06  
    9    -689.3489997280      6.57e-07  
   10    -689.3489997583      1.61e-07  
   11    -689.3489997595      4.10e-08  
   12    -689.3489997596      1.58e-08  
   13    -689.3489997596      4.20e-09  Convergence criterion met
 ---------------------------------------
 SCF time:   CPU 2277.99s  wall 570.00s 
 SCF   energy in the final basis set =     -689.3489997596
 Total energy in the final basis set =     -689.3489997596


 --------------------------------------------------------------
  Generalized many-body perturbation theory program
  by Joonho Lee, Fazle Rob, Xintian Feng, Evgeny Epifanovsky

         1      0.00041127     MINRES Iteration
         2      0.00014130     MINRES Iteration
         3      0.00006579     MINRES Iteration
         4      0.00003160     MINRES Iteration
         5      0.00001377     MINRES Iteration
         6      0.00000446     MINRES Iteration
         7      0.00000151     MINRES Iteration
         8      0.00000040     MINRES Done

 In RI-MP2 calculation: 
 # of frozen core orbitals: 11

 Components of the RIMP2 correlation energy:
        aaaa    correlation energy =        -0.1511365593 a.u.
        abab    correlation energy =        -0.8567339999 a.u.
        bbbb    correlation energy =        -0.1511365593 a.u.
        non-Brillouin singles      =        -0.0000000000 a.u.
        total same-spin energy     =        -0.3022731186 a.u.
        total opposite-spin energy =        -0.8567339999 a.u.

 Total  RIMP2   correlation energy =        -1.1590071184 a.u.
        RIMP2         total energy =      -690.5080068780 a.u.

 RI-MP2 Gradient Time:  CPU 5078.61 s  wall 1276.05 s

 --------------------------------------------------------------
             Orbital Energies (a.u.) and Symmetries
 --------------------------------------------------------------

 Alpha MOs, Restricted
 -- Occupied --                  
-104.82  -11.26  -11.24  -11.24  -11.22  -11.22  -11.22  -10.57
  1 A1    2 A1    3 A1    1 B1    2 B1    4 A1    5 A1    6 A1                 
 -8.045  -8.035  -8.034  -1.402  -1.133  -1.030  -0.968  -0.875
  7 A1    1 B2    3 B1    8 A1    9 A1    4 B1   10 A1    5 B1                 
 -0.802  -0.715  -0.684  -0.668  -0.667  -0.603  -0.589  -0.518
 11 A1   12 A1    6 B1    2 B2   13 A1   14 A1    7 B1    8 B1                 
 -0.508  -0.467  -0.413  -0.345  -0.283
 15 A1    3 B2    9 B1    1 A2    4 B2                                         
 -- Virtual --                   
  0.118   0.123   0.148   0.168   0.179   0.209   0.210   0.263
  2 A2    5 B2   16 A1   10 B1   17 A1   18 A1   11 B1   19 A1                 
  0.294   0.299   0.320   0.349   0.381   0.396   0.430   0.437
  6 B2   20 A1   12 B1   21 A1   13 B1   22 A1    7 B2   23 A1                 
  0.460   0.460   0.477   0.489   0.494   0.517   0.535   0.539
  3 A2   14 B1    8 B2   15 B1   24 A1    9 B2   25 A1   16 B1                 
  0.541   0.550   0.561   0.581   0.597   0.598   0.608   0.613
  4 A2   26 A1   10 B2   17 B1   18 B1   27 A1    5 A2   28 A1                 
  0.626   0.639   0.663   0.693   0.700   0.720   0.721   0.745
 11 B2   19 B1   29 A1   30 A1   12 B2   20 B1   31 A1   21 B1                 
  0.745   0.793   0.819   0.839   0.856   0.886   0.893   0.919
 32 A1   33 A1   22 B1   13 B2    6 A2    7 A2   23 B1   34 A1                 
  0.923   0.936   0.954   0.989   1.002   1.013   1.022   1.038
 24 B1   35 A1   14 B2    8 A2   36 A1   25 B1   37 A1   38 A1                 
  1.045   1.112   1.116   1.177   1.193   1.212   1.223   1.235
 26 B1   39 A1   15 B2   27 B1   16 B2   17 B2   40 A1    9 A2                 
  1.260   1.297   1.302   1.310   1.326   1.358   1.393   1.456
 41 A1   28 B1   10 A2   42 A1   18 B2   29 B1   43 A1   30 B1                 
  1.478   1.488   1.494   1.495   1.516   1.518   1.540   1.572
 31 B1   19 B2   44 A1   32 B1   45 A1   11 A2   33 B1   46 A1                 
  1.581   1.588   1.610   1.615   1.629   1.645   1.650   1.663
 47 A1   12 A2   34 B1   48 A1   49 A1   20 B2   35 B1   50 A1                 
  1.686   1.788   1.792   1.843   1.925   1.955   2.064   2.070
 36 B1   13 A2   21 B2   51 A1   37 B1   52 A1   38 B1   53 A1                 
  2.100   2.124   2.126   2.156   2.272   2.275   2.311   2.327
 22 B2   39 B1   14 A2   54 A1   23 B2   55 A1   56 A1   24 B2                 
  2.354   2.366   2.392   2.408   2.438   2.445   2.458   2.495
 40 B1   15 A2   41 B1   25 B2   57 A1   16 A2   26 B2   42 B1                 
  2.523   2.531   2.555   2.558   2.572   2.637   2.681   2.736
 58 A1   59 A1   43 B1   17 A2   27 B2   44 B1   60 A1   61 A1                 
  2.741   2.758   2.798   2.820   2.845   2.885   2.917   2.924
 45 B1   46 B1   28 B2   29 B2   62 A1   18 A2   47 B1   63 A1                 
  2.945   2.956   2.963   2.982   2.992   3.007   3.014   3.051
 30 B2   48 B1   64 A1   19 A2   31 B2   65 A1   32 B2   66 A1                 
  3.052   3.058   3.096   3.117   3.119   3.181   3.188   3.204
 49 B1   20 A2   50 B1   67 A1   33 B2   68 A1   21 A2   34 B2                 
  3.222   3.235   3.251   3.262   3.283   3.297   3.325   3.335
 22 A2   69 A1   51 B1   35 B2   70 A1   52 B1   71 A1   53 B1                 
  3.377   3.391   3.394   3.416   3.426   3.433   3.470   3.473
 23 A2   36 B2   72 A1   73 A1   24 A2   54 B1   74 A1   55 B1                 
  3.478   3.488   3.495   3.508   3.544   3.600   3.615   3.623
 37 B2   25 A2   75 A1   56 B1   57 B1   38 B2   76 A1   58 B1                 
  3.641   3.661   3.683   3.686   3.700   3.721   3.757   3.846
 39 B2   26 A2   27 A2   59 B1   77 A1   40 B2   78 A1   79 A1                 
  3.866   3.884   3.913   3.927   3.932   3.965   3.978   4.000
 28 A2   80 A1   60 B1   81 A1   61 B1   41 B2   62 B1   82 A1                 
  4.011   4.054   4.072   4.088   4.089   4.107   4.130   4.154
 29 A2   83 A1   63 B1   64 B1   30 A2   42 B2   84 A1   43 B2                 
  4.164   4.165   4.184   4.201   4.226   4.231   4.285   4.301
 31 A2   65 B1   44 B2   32 A2   85 A1   66 B1   86 A1   67 B1                 
  4.370   4.375   4.418   4.428   4.437   4.468   4.526   4.533
 87 A1   45 B2   68 B1   33 A2   46 B2   88 A1   47 B2   89 A1                 
  4.559   4.585   4.609   4.628   4.662   4.669   4.670   4.685
 69 B1   70 B1   90 A1   91 A1   34 A2   71 B1   92 A1   48 B2                 
  4.690   4.750   4.763   4.817   4.909   4.959   5.010   5.071
 35 A2   93 A1   49 B2   72 B1   94 A1   73 B1   50 B2   51 B2                 
  5.092   5.106   5.112   5.124   5.203   5.271   5.286   5.304
 36 A2   95 A1   74 B1   96 A1   37 A2   52 B2   97 A1   75 B1                 
  5.355   5.381   5.453   5.525   5.575   5.613   5.620   5.640
 38 A2   76 B1   98 A1   77 B1   99 A1  100 A1   78 B1   79 B1                 
  5.747   5.761   5.964   6.069   6.112   6.165   6.174   6.242
101 A1   53 B2  102 A1   80 B1  103 A1  104 A1   81 B1   82 B1                 
  6.469   6.544   6.593   6.618   6.647   7.172   7.271  10.280
105 A1   83 B1  106 A1  107 A1   84 B1  108 A1   85 B1   39 A2                 
 10.376  10.590  10.854  11.226  12.710  12.929  13.637  15.321
109 A1   54 B2   86 B1  110 A1   55 B2   87 B1  111 A1   56 B2                 
 15.449  15.483  15.527  15.565  15.780  16.376  16.434  16.469
 40 A2   57 B2   58 B2   41 A2   59 B2  112 A1   88 B1  113 A1                 
 16.532  16.564  16.610  16.765  16.772  16.775  16.798  16.876
 89 B1   90 B1  114 A1  115 A1   91 B1  116 A1   92 B1  117 A1                 
 16.894  16.968  17.011  17.118  17.196  17.217  17.883  18.851
 93 B1  118 A1  119 A1   94 B1   95 B1  120 A1  121 A1  122 A1                 
 36.915  36.918  36.923  36.930  36.937  36.952  36.960  41.475
 60 B2   96 B1   42 A2  123 A1   61 B2   97 B1  124 A1   43 A2                 
 41.478  41.517  41.519  41.522  41.526  41.534  41.544  41.545
125 A1   44 A2   62 B2   63 B2   98 B1   45 A2  126 A1   99 B1                 
 41.552  41.555  41.575  41.587  41.590  41.597  41.604  41.616
127 A1   64 B2  100 B1   46 A2   65 B2   66 B2   47 A2   67 B2                 
 41.633  41.718  41.797  41.816  41.830  41.834  41.892  41.948
 48 A2  128 A1  101 B1  129 A1  130 A1  102 B1  131 A1  132 A1                 
 41.949  41.970  41.983  42.000  42.043  46.473  46.525  46.639
103 B1  104 B1  133 A1  105 B1  134 A1   49 A2  135 A1   68 B2                 
 46.769  47.104  55.081  55.319  56.099  81.019  81.110  81.140
106 B1  136 A1   69 B2  107 B1  137 A1   70 B2   50 A2   71 B2                 
 81.179  81.201  81.354  81.818  81.843  81.882  81.925  81.935
 72 B2   51 A2   73 B2  108 B1  138 A1  109 B1  110 B1  139 A1                 
 82.054  82.064  82.112  82.137  82.207  82.284  82.429  85.312
140 A1  111 B1  141 A1  112 B1  142 A1  143 A1  113 B1  144 A1                 
 86.077  86.204  86.732  86.869  87.975 104.902
114 B1  145 A1  115 B1  146 A1  147 A1  148 A1                                 

 Beta MOs, Restricted
 -- Occupied --                  
-104.82  -11.26  -11.24  -11.24  -11.22  -11.22  -11.22  -10.57
  1 A1    2 A1    3 A1    1 B1    2 B1    4 A1    5 A1    6 A1                 
 -8.045  -8.035  -8.034  -1.402  -1.133  -1.030  -0.968  -0.875
  7 A1    1 B2    3 B1    8 A1    9 A1    4 B1   10 A1    5 B1                 
 -0.802  -0.715  -0.684  -0.668  -0.667  -0.603  -0.589  -0.518
 11 A1   12 A1    6 B1    2 B2   13 A1   14 A1    7 B1    8 B1                 
 -0.508  -0.467  -0.413  -0.345  -0.283
 15 A1    3 B2    9 B1    1 A2    4 B2                                         
 -- Virtual --                   
  0.118   0.123   0.148   0.168   0.179   0.209   0.210   0.263
  2 A2    5 B2   16 A1   10 B1   17 A1   18 A1   11 B1   19 A1                 
  0.294   0.299   0.320   0.349   0.381   0.396   0.430   0.437
  6 B2   20 A1   12 B1   21 A1   13 B1   22 A1    7 B2   23 A1                 
  0.460   0.460   0.477   0.489   0.494   0.517   0.535   0.539
  3 A2   14 B1    8 B2   15 B1   24 A1    9 B2   25 A1   16 B1                 
  0.541   0.550   0.561   0.581   0.597   0.598   0.608   0.613
  4 A2   26 A1   10 B2   17 B1   18 B1   27 A1    5 A2   28 A1                 
  0.626   0.639   0.663   0.693   0.700   0.720   0.721   0.745
 11 B2   19 B1   29 A1   30 A1   12 B2   20 B1   31 A1   21 B1                 
  0.745   0.793   0.819   0.839   0.856   0.886   0.893   0.919
 32 A1   33 A1   22 B1   13 B2    6 A2    7 A2   23 B1   34 A1                 
  0.923   0.936   0.954   0.989   1.002   1.013   1.022   1.038
 24 B1   35 A1   14 B2    8 A2   36 A1   25 B1   37 A1   38 A1                 
  1.045   1.112   1.116   1.177   1.193   1.212   1.223   1.235
 26 B1   39 A1   15 B2   27 B1   16 B2   17 B2   40 A1    9 A2                 
  1.260   1.297   1.302   1.310   1.326   1.358   1.393   1.456
 41 A1   28 B1   10 A2   42 A1   18 B2   29 B1   43 A1   30 B1                 
  1.478   1.488   1.494   1.495   1.516   1.518   1.540   1.572
 31 B1   19 B2   44 A1   32 B1   45 A1   11 A2   33 B1   46 A1                 
  1.581   1.588   1.610   1.615   1.629   1.645   1.650   1.663
 47 A1   12 A2   34 B1   48 A1   49 A1   20 B2   35 B1   50 A1                 
  1.686   1.788   1.792   1.843   1.925   1.955   2.064   2.070
 36 B1   13 A2   21 B2   51 A1   37 B1   52 A1   38 B1   53 A1                 
  2.100   2.124   2.126   2.156   2.272   2.275   2.311   2.327
 22 B2   39 B1   14 A2   54 A1   23 B2   55 A1   56 A1   24 B2                 
  2.354   2.366   2.392   2.408   2.438   2.445   2.458   2.495
 40 B1   15 A2   41 B1   25 B2   57 A1   16 A2   26 B2   42 B1                 
  2.523   2.531   2.555   2.558   2.572   2.637   2.681   2.736
 58 A1   59 A1   43 B1   17 A2   27 B2   44 B1   60 A1   61 A1                 
  2.741   2.758   2.798   2.820   2.845   2.885   2.917   2.924
 45 B1   46 B1   28 B2   29 B2   62 A1   18 A2   47 B1   63 A1                 
  2.945   2.956   2.963   2.982   2.992   3.007   3.014   3.051
 30 B2   48 B1   64 A1   19 A2   31 B2   65 A1   32 B2   66 A1                 
  3.052   3.058   3.096   3.117   3.119   3.181   3.188   3.204
 49 B1   20 A2   50 B1   67 A1   33 B2   68 A1   21 A2   34 B2                 
  3.222   3.235   3.251   3.262   3.283   3.297   3.325   3.335
 22 A2   69 A1   51 B1   35 B2   70 A1   52 B1   71 A1   53 B1                 
  3.377   3.391   3.394   3.416   3.426   3.433   3.470   3.473
 23 A2   36 B2   72 A1   73 A1   24 A2   54 B1   74 A1   55 B1                 
  3.478   3.488   3.495   3.508   3.544   3.600   3.615   3.623
 37 B2   25 A2   75 A1   56 B1   57 B1   38 B2   76 A1   58 B1                 
  3.641   3.661   3.683   3.686   3.700   3.721   3.757   3.846
 39 B2   26 A2   27 A2   59 B1   77 A1   40 B2   78 A1   79 A1                 
  3.866   3.884   3.913   3.927   3.932   3.965   3.978   4.000
 28 A2   80 A1   60 B1   81 A1   61 B1   41 B2   62 B1   82 A1                 
  4.011   4.054   4.072   4.088   4.089   4.107   4.130   4.154
 29 A2   83 A1   63 B1   64 B1   30 A2   42 B2   84 A1   43 B2                 
  4.164   4.165   4.184   4.201   4.226   4.231   4.285   4.301
 31 A2   65 B1   44 B2   32 A2   85 A1   66 B1   86 A1   67 B1                 
  4.370   4.375   4.418   4.428   4.437   4.468   4.526   4.533
 87 A1   45 B2   68 B1   33 A2   46 B2   88 A1   47 B2   89 A1                 
  4.559   4.585   4.609   4.628   4.662   4.669   4.670   4.685
 69 B1   70 B1   90 A1   91 A1   34 A2   71 B1   92 A1   48 B2                 
  4.690   4.750   4.763   4.817   4.909   4.959   5.010   5.071
 35 A2   93 A1   49 B2   72 B1   94 A1   73 B1   50 B2   51 B2                 
  5.092   5.106   5.112   5.124   5.203   5.271   5.286   5.304
 36 A2   95 A1   74 B1   96 A1   37 A2   52 B2   97 A1   75 B1                 
  5.355   5.381   5.453   5.525   5.575   5.613   5.620   5.640
 38 A2   76 B1   98 A1   77 B1   99 A1  100 A1   78 B1   79 B1                 
  5.747   5.761   5.964   6.069   6.112   6.165   6.174   6.242
101 A1   53 B2  102 A1   80 B1  103 A1  104 A1   81 B1   82 B1                 
  6.469   6.544   6.593   6.618   6.647   7.172   7.271  10.280
105 A1   83 B1  106 A1  107 A1   84 B1  108 A1   85 B1   39 A2                 
 10.376  10.590  10.854  11.226  12.710  12.929  13.637  15.321
109 A1   54 B2   86 B1  110 A1   55 B2   87 B1  111 A1   56 B2                 
 15.449  15.483  15.527  15.565  15.780  16.376  16.434  16.469
 40 A2   57 B2   58 B2   41 A2   59 B2  112 A1   88 B1  113 A1                 
 16.532  16.564  16.610  16.765  16.772  16.775  16.798  16.876
 89 B1   90 B1  114 A1  115 A1   91 B1  116 A1   92 B1  117 A1                 
 16.894  16.968  17.011  17.118  17.196  17.217  17.883  18.851
 93 B1  118 A1  119 A1   94 B1   95 B1  120 A1  121 A1  122 A1                 
 36.915  36.918  36.923  36.930  36.937  36.952  36.960  41.475
 60 B2   96 B1   42 A2  123 A1   61 B2   97 B1  124 A1   43 A2                 
 41.478  41.517  41.519  41.522  41.526  41.534  41.544  41.545
125 A1   44 A2   62 B2   63 B2   98 B1   45 A2  126 A1   99 B1                 
 41.552  41.555  41.575  41.587  41.590  41.597  41.604  41.616
127 A1   64 B2  100 B1   46 A2   65 B2   66 B2   47 A2   67 B2                 
 41.633  41.718  41.797  41.816  41.830  41.834  41.892  41.948
 48 A2  128 A1  101 B1  129 A1  130 A1  102 B1  131 A1  132 A1                 
 41.949  41.970  41.983  42.000  42.043  46.473  46.525  46.639
103 B1  104 B1  133 A1  105 B1  134 A1   49 A2  135 A1   68 B2                 
 46.769  47.104  55.081  55.319  56.099  81.019  81.110  81.140
106 B1  136 A1   69 B2  107 B1  137 A1   70 B2   50 A2   71 B2                 
 81.179  81.201  81.354  81.818  81.843  81.882  81.925  81.935
 72 B2   51 A2   73 B2  108 B1  138 A1  109 B1  110 B1  139 A1                 
 82.054  82.064  82.112  82.137  82.207  82.284  82.429  85.312
140 A1  111 B1  141 A1  112 B1  142 A1  143 A1  113 B1  144 A1                 
 86.077  86.204  86.732  86.869  87.975 104.902
114 B1  145 A1  115 B1  146 A1  147 A1  148 A1                                 
 --------------------------------------------------------------

          Ground-State Mulliken Net Atomic Charges

     Atom                 Charge (a.u.)
  ----------------------------------------
      1 H                     0.092525
      2 C                    -0.134813
      3 C                    -0.118462
      4 H                     0.109791
      5 C                    -0.130623
      6 H                     0.111233
      7 C                    -0.118462
      8 H                     0.109791
      9 C                    -0.134813
     10 H                     0.092525
     11 C                     0.022591
     12 Cl                    0.098717
  ----------------------------------------
  Sum of atomic charges =     0.000000

 -----------------------------------------------------------------
                    Cartesian Multipole Moments
 -----------------------------------------------------------------
    Charge (ESU x 10^10)
                 0.0000
    Dipole Moment (Debye)
         X      -0.0000      Y      -0.0000      Z      -0.0592
       Tot       0.0592
    Quadrupole Moments (Debye-Ang)
        XX     -43.1783     XY       0.0000     YY     -50.1315
        XZ       0.0000     YZ      -0.0000     ZZ     -45.6918
    Octopole Moments (Debye-Ang^2)
       XXX      -0.0000    XXY      -0.0000    XYY      -0.0000
       YYY      -0.0000    XXZ       1.1660    XYZ       0.0000
       YYZ       8.2529    XZZ      -0.0000    YZZ      -0.0000
       ZZZ       2.3624
    Hexadecapole Moments (Debye-Ang^3)
      XXXX    -283.7164   XXXY       0.0000   XXYY     -67.6355
      XYYY       0.0000   YYYY     -56.1859   XXXZ       0.0000
      XXYZ       0.0000   XYYZ       0.0000   YYYZ      -0.0000
      XXZZ    -153.6024   XYZZ       0.0000   YYZZ    -126.5133
      XZZZ       0.0000   YZZZ      -0.0000   ZZZZ    -624.9709
 -----------------------------------------------------------------
 DrvMan is completing analytic gradient of the MP2 energy
 MP2 relaxed dipole moment
            1
    1  -0.0000000
    2  -0.0000000
    3  -0.0232888
	Magnitude:	 0.023 au	 0.059 Debye
 MP2 energy read as -690.508007
 Full Analytical Gradient of MP2 Energy (in au.)
             1             2             3             4             5
    1   -0.01037431    0.04279815    0.01207243   -0.00676255   -0.00000000
    2    0.00000000    0.00000000   -0.00000000   -0.00000000    0.00000000
    3   -0.00032588    0.07881893    0.00347366   -0.00338681    0.01509687
             6             7             8             9            10
    1    0.00000000   -0.01207243    0.00676255   -0.04279815    0.01037431
    2    0.00000000   -0.00000000   -0.00000000    0.00000000    0.00000000
    3   -0.00858304    0.00347366   -0.00338681    0.07881893   -0.00032588
            11            12
    1   -0.00000000    0.00000000
    2   -0.00000000    0.00000000
    3    0.95153391   -1.11520754
 Gradient time:  CPU 0.34 s  wall 0.27 s
 Geometry Optimization Parameters
   NAtoms,    NIC,     NZ,  NCons,   NDum,   NFix, NCnnct, MaxDiis
       12     107       0       0       0       0       0       0


** GEOMETRY OPTIMIZATION IN DELOCALIZED INTERNAL COORDINATES **
   Searching for a Minimum

   Optimization Cycle:   2

                       Coordinates (Angstroms)
     ATOM                X               Y               Z
      1  H        -2.1408504673    0.0000000000    0.5587256378
      2  C        -1.1963390386    0.0000000000    0.0072244603
      3  C        -1.2027708168    0.0000000000   -1.3839768238
      4  H        -2.1518995917    0.0000000000   -1.9275884731
      5  C         0.0000000000    0.0000000000   -2.0821630262
      6  H         0.0000000000    0.0000000000   -3.1757991051
      7  C         1.2027708168    0.0000000000   -1.3839768238
      8  H         2.1518995917    0.0000000000   -1.9275884731
      9  C         1.1963390386    0.0000000000    0.0072244603
     10  H         2.1408504673    0.0000000000    0.5587256378
     11  C         0.0000000000    0.0000000000    0.6549279230
     12  Cl        0.0000000000    0.0000000000    1.8653107853
   Point Group: c2v   Number of degrees of freedom:    11


   Energy is   -690.508006878

 Hessian Updated using BFGS Update

 ** Taking Steepest Descent Step **
 Calculated Step too Large.  Step scaled by  0.394102
 Step Taken.  Stepsize is  0.300000

                             Maximum     Tolerance    Cnvgd?
         Gradient           0.696949      0.000300      NO
         Displacement       0.274669      0.001200      NO
         Energy change     -0.313684      0.000001      NO


 New Cartesian Coordinates Obtained by Inverse Iteration

 Displacement from previous Coordinates is:  0.161879
 ----------------------------------------------------------------
             Standard Nuclear Orientation (Angstroms)
    I     Atom           X                Y                Z
 ----------------------------------------------------------------
    1      H      -2.1295882858     0.0000000000     0.5591489392
    2      C      -1.1892612158     0.0000000000     0.0041429053
    3      C      -1.2015583382     0.0000000000    -1.3877201447
    4      H      -2.1509256281     0.0000000000    -1.9277369868
    5      C       0.0000000000     0.0000000000    -2.0885179636
    6      H       0.0000000000     0.0000000000    -3.1803640489
    7      C       1.2015583382     0.0000000000    -1.3877201447
    8      H       2.1509256281     0.0000000000    -1.9277369868
    9      C       1.1892612158     0.0000000000     0.0041429053
   10      H       2.1295882858     0.0000000000     0.5591489392
   11      C       0.0000000000     0.0000000000     0.6095696836
   12      Cl      0.0000000000     0.0000000000     1.9346890823
 ----------------------------------------------------------------
 Molecular Point Group                 C2v   NOp =  4
 Largest Abelian Subgroup              C2v   NOp =  4
 Nuclear Repulsion Energy =   341.8813658168 hartrees
 There are       29 alpha and       29 beta electrons
 Applying Cartesian multipole field
    Component          Value
    ---------          -----
     (2,0,0)        1.00000E-11
     (0,2,0)        2.00000E-10
     (0,0,2)       -3.00000E-11
 Nucleus-field energy     =    -0.0000000124 hartrees
 Requested basis set is cc-pCVTZ
 There are 139 shells and 387 basis functions
 Requested basis set is rimp2-cc-pVTZ
 There are 220 shells and 758 basis functions
 A cutoff of  1.0D-11 yielded   8545 shell pairs
 There are     65309 function pairs (     83954 Cartesian)
 Smallest overlap matrix eigenvalue = 2.86E-05
 Guess MOs from SCF MO coefficient file

 -----------------------------------------------------------------------
  General SCF calculation program by
  Eric Jon Sundstrom, Paul Horn, Yuezhi Mao, Dmitri Zuev, Alec White,
  David Stuck, Shaama M.S., Shane Yost, Joonho Lee, David Small,
  Daniel Levine, Susi Lehtola, Hugh Burton, Evgeny Epifanovsky
 -----------------------------------------------------------------------
 Hartree-Fock
 using 4 threads for integral computing
 -------------------------------------------------------
 OpenMP Integral computing Module                
 Release: version 2.0, May 2017, Q-Chem Inc. Pleasanton 
 -------------------------------------------------------
 A restricted SCF calculation will be
 performed using DIIS
 SCF converges when DIIS error is below 1.0e-08
 ---------------------------------------
  Cycle       Energy         DIIS error
 ---------------------------------------
    1    -689.5119043650      9.97e-04  
    2    -689.5241707812      2.59e-04  
    3    -689.5252572763      1.16e-04  
    4    -689.5255283711      3.37e-05  
    5    -689.5255811006      1.56e-05  
    6    -689.5255966451      7.97e-06  
    7    -689.5256025671      3.04e-06  
    8    -689.5256035243      1.13e-06  
    9    -689.5256036450      4.62e-07  
   10    -689.5256036602      1.16e-07  
   11    -689.5256036608      2.52e-08  
   12    -689.5256036609      1.02e-08  
   13    -689.5256036609      2.43e-09  Convergence criterion met
 ---------------------------------------
 SCF time:   CPU 2266.46s  wall 568.00s 
 SCF   energy in the final basis set =     -689.5256036609
 Total energy in the final basis set =     -689.5256036609


 --------------------------------------------------------------
  Generalized many-body perturbation theory program
  by Joonho Lee, Fazle Rob, Xintian Feng, Evgeny Epifanovsky

         1      0.00039121     MINRES Iteration
         2      0.00011818     MINRES Iteration
         3      0.00004798     MINRES Iteration
         4      0.00002413     MINRES Iteration
         5      0.00001124     MINRES Iteration
         6      0.00000382     MINRES Iteration
         7      0.00000131     MINRES Iteration
         8      0.00000035     MINRES Done

 In RI-MP2 calculation: 
 # of frozen core orbitals: 11

 Components of the RIMP2 correlation energy:
        aaaa    correlation energy =        -0.1495799375 a.u.
        abab    correlation energy =        -0.8528390021 a.u.
        bbbb    correlation energy =        -0.1495799375 a.u.
        non-Brillouin singles      =        -0.0000000000 a.u.
        total same-spin energy     =        -0.2991598750 a.u.
        total opposite-spin energy =        -0.8528390021 a.u.

 Total  RIMP2   correlation energy =        -1.1519988771 a.u.
        RIMP2         total energy =      -690.6776025380 a.u.

 RI-MP2 Gradient Time:  CPU 5034.84 s  wall 1265.19 s

 --------------------------------------------------------------
             Orbital Energies (a.u.) and Symmetries
 --------------------------------------------------------------

 Alpha MOs, Restricted
 -- Occupied --                  
-104.82  -11.25  -11.24  -11.24  -11.23  -11.22  -11.22  -10.56
  1 A1    2 A1    3 A1    1 B1    4 A1    2 B1    5 A1    6 A1                 
 -8.032  -8.026  -8.026  -1.344  -1.137  -1.032  -0.976  -0.868
  7 A1    3 B1    1 B2    8 A1    9 A1    4 B1   10 A1    5 B1                 
 -0.807  -0.713  -0.674  -0.662  -0.629  -0.604  -0.596  -0.518
 11 A1   12 A1    6 B1   13 A1    2 B2   14 A1    7 B1    8 B1                 
 -0.508  -0.469  -0.427  -0.346  -0.300
 15 A1    3 B2    9 B1    1 A2    4 B2                                         
 -- Virtual --                   
  0.116   0.128   0.146   0.167   0.177   0.207   0.208   0.265
  2 A2    5 B2   16 A1   10 B1   17 A1   18 A1   11 B1   19 A1                 
  0.300   0.303   0.329   0.355   0.380   0.394   0.428   0.437
 20 A1    6 B2   12 B1   21 A1   13 B1   22 A1    7 B2   23 A1                 
  0.458   0.465   0.478   0.486   0.493   0.517   0.528   0.538
  3 A2   14 B1    8 B2   15 B1   24 A1    9 B2   25 A1   16 B1                 
  0.543   0.548   0.561   0.580   0.593   0.594   0.609   0.617
  4 A2   26 A1   10 B2   17 B1   27 A1   18 B1   28 A1   11 B2                 
  0.619   0.637   0.654   0.681   0.696   0.723   0.726   0.741
  5 A2   19 B1   29 A1   30 A1   12 B2   31 A1   20 B1   21 B1                 
  0.744   0.793   0.825   0.828   0.854   0.880   0.893   0.918
 32 A1   33 A1   13 B2   22 B1    6 A2    7 A2   23 B1   34 A1                 
  0.922   0.948   0.951   0.984   0.998   1.013   1.021   1.037
 24 B1   14 B2   35 A1    8 A2   36 A1   25 B1   37 A1   26 B1                 
  1.047   1.108   1.109   1.169   1.191   1.210   1.220   1.231
 38 A1   15 B2   39 A1   27 B1   16 B2   17 B2   40 A1    9 A2                 
  1.258   1.290   1.298   1.299   1.317   1.355   1.378   1.456
 41 A1   28 B1   42 A1   10 A2   18 B2   29 B1   43 A1   30 B1                 
  1.479   1.482   1.491   1.495   1.509   1.520   1.538   1.552
 44 A1   31 B1   32 B1   19 B2   45 A1   11 A2   33 B1   46 A1                 
  1.565   1.584   1.585   1.608   1.634   1.634   1.640   1.655
 47 A1   48 A1   12 A2   34 B1   49 A1   35 B1   20 B2   50 A1                 
  1.681   1.785   1.794   1.832   1.924   1.956   2.055   2.064
 36 B1   21 B2   13 A2   51 A1   37 B1   52 A1   53 A1   38 B1                 
  2.115   2.125   2.134   2.150   2.230   2.262   2.282   2.348
 22 B2   39 B1   14 A2   54 A1   55 A1   23 B2   56 A1   40 B1                 
  2.350   2.363   2.401   2.405   2.411   2.432   2.469   2.499
 24 B2   15 A2   41 B1   57 A1   25 B2   16 A2   26 B2   58 A1                 
  2.501   2.542   2.544   2.546   2.571   2.629   2.685   2.719
 42 B1   17 A2   59 A1   27 B2   43 B1   44 B1   60 A1   45 B1                 
  2.733   2.753   2.793   2.811   2.835   2.855   2.910   2.914
 61 A1   46 B1   28 B2   29 B2   62 A1   18 A2   63 A1   47 B1                 
  2.938   2.942   2.955   2.971   2.975   2.994   3.015   3.024
 30 B2   48 B1   64 A1   31 B2   19 A2   65 A1   32 B2   49 B1                 
  3.051   3.051   3.085   3.096   3.108   3.186   3.191   3.211
 66 A1   20 A2   33 B2   50 B1   67 A1   68 A1   21 A2   34 B2                 
  3.214   3.216   3.239   3.257   3.277   3.290   3.297   3.331
 22 A2   69 A1   51 B1   35 B2   70 A1   52 B1   71 A1   53 B1                 
  3.374   3.375   3.377   3.412   3.412   3.415   3.458   3.460
 23 A2   36 B2   72 A1   73 A1   54 B1   24 A2   55 B1   74 A1                 
  3.468   3.480   3.481   3.505   3.546   3.595   3.602   3.620
 37 B2   25 A2   75 A1   56 B1   57 B1   38 B2   76 A1   58 B1                 
  3.637   3.657   3.680   3.684   3.691   3.719   3.745   3.820
 39 B2   26 A2   27 A2   59 B1   77 A1   40 B2   78 A1   79 A1                 
  3.855   3.886   3.909   3.926   3.935   3.943   3.980   3.984
 28 A2   80 A1   60 B1   61 B1   81 A1   41 B2   62 B1   82 A1                 
  4.010   4.020   4.078   4.089   4.110   4.115   4.124   4.154
 29 A2   83 A1   63 B1   30 A2   84 A1   42 B2   64 B1   43 B2                 
  4.162   4.162   4.180   4.201   4.205   4.211   4.281   4.283
 65 B1   31 A2   44 B2   32 A2   66 B1   85 A1   86 A1   45 B2                 
  4.291   4.341   4.407   4.415   4.427   4.432   4.499   4.507
 67 B1   87 A1   46 B2   68 B1   88 A1   33 A2   89 A1   47 B2                 
  4.549   4.575   4.614   4.634   4.666   4.667   4.678   4.690
 69 B1   70 B1   90 A1   91 A1   71 B1   34 A2   92 A1   48 B2                 
  4.702   4.750   4.767   4.811   4.908   4.936   5.011   5.049
 35 A2   93 A1   49 B2   72 B1   94 A1   73 B1   50 B2   95 A1                 
  5.094   5.102   5.104   5.110   5.210   5.277   5.279   5.306
 36 A2   51 B2   74 B1   96 A1   37 A2   97 A1   52 B2   75 B1                 
  5.363   5.384   5.423   5.523   5.543   5.623   5.626   5.660
 38 A2   76 B1   98 A1   77 B1   99 A1  100 A1   78 B1   79 B1                 
  5.753   5.768   5.856   6.080   6.120   6.166   6.178   6.292
101 A1   53 B2  102 A1   80 B1  103 A1  104 A1   81 B1   82 B1                 
  6.452   6.542   6.583   6.624   6.651   7.141   7.275  10.273
105 A1   83 B1  106 A1  107 A1   84 B1  108 A1   85 B1   39 A2                 
 10.357  10.469  10.685  11.208  12.687  12.860  13.459  15.316
109 A1   54 B2   86 B1  110 A1   55 B2   87 B1  111 A1   56 B2                 
 15.447  15.474  15.523  15.569  15.785  16.386  16.441  16.452
 40 A2   57 B2   58 B2   41 A2   59 B2  112 A1   88 B1  113 A1                 
 16.543  16.570  16.571  16.740  16.754  16.765  16.804  16.811
 89 B1   90 B1  114 A1  115 A1  116 A1   91 B1   92 B1  117 A1                 
 16.953  16.955  16.989  17.125  17.198  17.213  17.916  18.669
 93 B1  118 A1  119 A1   94 B1   95 B1  120 A1  121 A1  122 A1                 
 36.924  36.927  36.929  36.935  36.946  36.959  36.962  41.471
 60 B2   96 B1   42 A2  123 A1   61 B2   97 B1  124 A1   43 A2                 
 41.476  41.510  41.513  41.520  41.521  41.531  41.536  41.540
125 A1   62 B2   44 A2   63 B2   98 B1   45 A2   64 B2  126 A1                 
 41.540  41.549  41.563  41.584  41.585  41.593  41.603  41.609
 99 B1  127 A1  100 B1   46 A2   65 B2   66 B2   47 A2   67 B2                 
 41.645  41.702  41.791  41.798  41.824  41.825  41.836  41.942
 48 A2  128 A1  129 A1  101 B1  130 A1  131 A1  102 B1  132 A1                 
 41.947  41.966  41.984  42.031  42.079  46.470  46.516  46.572
103 B1  104 B1  133 A1  105 B1  134 A1   49 A2  135 A1   68 B2                 
 46.676  47.025  55.046  55.240  55.861  81.014  81.108  81.132
106 B1  136 A1   69 B2  107 B1  137 A1   70 B2   50 A2   71 B2                 
 81.173  81.204  81.356  81.822  81.834  81.894  81.916  81.926
 72 B2   51 A2   73 B2  108 B1  138 A1  109 B1  139 A1  110 B1                 
 82.043  82.054  82.081  82.174  82.186  82.220  82.421  85.367
140 A1  111 B1  141 A1  142 A1  112 B1  143 A1  113 B1  144 A1                 
 86.092  86.179  86.744  86.832  88.017 104.607
114 B1  145 A1  115 B1  146 A1  147 A1  148 A1                                 

 Beta MOs, Restricted
 -- Occupied --                  
-104.82  -11.25  -11.24  -11.24  -11.23  -11.22  -11.22  -10.56
  1 A1    2 A1    3 A1    1 B1    4 A1    2 B1    5 A1    6 A1                 
 -8.032  -8.026  -8.026  -1.344  -1.137  -1.032  -0.976  -0.868
  7 A1    3 B1    1 B2    8 A1    9 A1    4 B1   10 A1    5 B1                 
 -0.807  -0.713  -0.674  -0.662  -0.629  -0.604  -0.596  -0.518
 11 A1   12 A1    6 B1   13 A1    2 B2   14 A1    7 B1    8 B1                 
 -0.508  -0.469  -0.427  -0.346  -0.300
 15 A1    3 B2    9 B1    1 A2    4 B2                                         
 -- Virtual --                   
  0.116   0.128   0.146   0.167   0.177   0.207   0.208   0.265
  2 A2    5 B2   16 A1   10 B1   17 A1   18 A1   11 B1   19 A1                 
  0.300   0.303   0.329   0.355   0.380   0.394   0.428   0.437
 20 A1    6 B2   12 B1   21 A1   13 B1   22 A1    7 B2   23 A1                 
  0.458   0.465   0.478   0.486   0.493   0.517   0.528   0.538
  3 A2   14 B1    8 B2   15 B1   24 A1    9 B2   25 A1   16 B1                 
  0.543   0.548   0.561   0.580   0.593   0.594   0.609   0.617
  4 A2   26 A1   10 B2   17 B1   27 A1   18 B1   28 A1   11 B2                 
  0.619   0.637   0.654   0.681   0.696   0.723   0.726   0.741
  5 A2   19 B1   29 A1   30 A1   12 B2   31 A1   20 B1   21 B1                 
  0.744   0.793   0.825   0.828   0.854   0.880   0.893   0.918
 32 A1   33 A1   13 B2   22 B1    6 A2    7 A2   23 B1   34 A1                 
  0.922   0.948   0.951   0.984   0.998   1.013   1.021   1.037
 24 B1   14 B2   35 A1    8 A2   36 A1   25 B1   37 A1   26 B1                 
  1.047   1.108   1.109   1.169   1.191   1.210   1.220   1.231
 38 A1   15 B2   39 A1   27 B1   16 B2   17 B2   40 A1    9 A2                 
  1.258   1.290   1.298   1.299   1.317   1.355   1.378   1.456
 41 A1   28 B1   42 A1   10 A2   18 B2   29 B1   43 A1   30 B1                 
  1.479   1.482   1.491   1.495   1.509   1.520   1.538   1.552
 44 A1   31 B1   32 B1   19 B2   45 A1   11 A2   33 B1   46 A1                 
  1.565   1.584   1.585   1.608   1.634   1.634   1.640   1.655
 47 A1   48 A1   12 A2   34 B1   49 A1   35 B1   20 B2   50 A1                 
  1.681   1.785   1.794   1.832   1.924   1.956   2.055   2.064
 36 B1   21 B2   13 A2   51 A1   37 B1   52 A1   53 A1   38 B1                 
  2.115   2.125   2.134   2.150   2.230   2.262   2.282   2.348
 22 B2   39 B1   14 A2   54 A1   55 A1   23 B2   56 A1   40 B1                 
  2.350   2.363   2.401   2.405   2.411   2.432   2.469   2.499
 24 B2   15 A2   41 B1   57 A1   25 B2   16 A2   26 B2   58 A1                 
  2.501   2.542   2.544   2.546   2.571   2.629   2.685   2.719
 42 B1   17 A2   59 A1   27 B2   43 B1   44 B1   60 A1   45 B1                 
  2.733   2.753   2.793   2.811   2.835   2.855   2.910   2.914
 61 A1   46 B1   28 B2   29 B2   62 A1   18 A2   63 A1   47 B1                 
  2.938   2.942   2.955   2.971   2.975   2.994   3.015   3.024
 30 B2   48 B1   64 A1   31 B2   19 A2   65 A1   32 B2   49 B1                 
  3.051   3.051   3.085   3.096   3.108   3.186   3.191   3.211
 66 A1   20 A2   33 B2   50 B1   67 A1   68 A1   21 A2   34 B2                 
  3.214   3.216   3.239   3.257   3.277   3.290   3.297   3.331
 22 A2   69 A1   51 B1   35 B2   70 A1   52 B1   71 A1   53 B1                 
  3.374   3.375   3.377   3.412   3.412   3.415   3.458   3.460
 23 A2   36 B2   72 A1   73 A1   54 B1   24 A2   55 B1   74 A1                 
  3.468   3.480   3.481   3.505   3.546   3.595   3.602   3.620
 37 B2   25 A2   75 A1   56 B1   57 B1   38 B2   76 A1   58 B1                 
  3.637   3.657   3.680   3.684   3.691   3.719   3.745   3.820
 39 B2   26 A2   27 A2   59 B1   77 A1   40 B2   78 A1   79 A1                 
  3.855   3.886   3.909   3.926   3.935   3.943   3.980   3.984
 28 A2   80 A1   60 B1   61 B1   81 A1   41 B2   62 B1   82 A1                 
  4.010   4.020   4.078   4.089   4.110   4.115   4.124   4.154
 29 A2   83 A1   63 B1   30 A2   84 A1   42 B2   64 B1   43 B2                 
  4.162   4.162   4.180   4.201   4.205   4.211   4.281   4.283
 65 B1   31 A2   44 B2   32 A2   66 B1   85 A1   86 A1   45 B2                 
  4.291   4.341   4.407   4.415   4.427   4.432   4.499   4.507
 67 B1   87 A1   46 B2   68 B1   88 A1   33 A2   89 A1   47 B2                 
  4.549   4.575   4.614   4.634   4.666   4.667   4.678   4.690
 69 B1   70 B1   90 A1   91 A1   71 B1   34 A2   92 A1   48 B2                 
  4.702   4.750   4.767   4.811   4.908   4.936   5.011   5.049
 35 A2   93 A1   49 B2   72 B1   94 A1   73 B1   50 B2   95 A1                 
  5.094   5.102   5.104   5.110   5.210   5.277   5.279   5.306
 36 A2   51 B2   74 B1   96 A1   37 A2   97 A1   52 B2   75 B1                 
  5.363   5.384   5.423   5.523   5.543   5.623   5.626   5.660
 38 A2   76 B1   98 A1   77 B1   99 A1  100 A1   78 B1   79 B1                 
  5.753   5.768   5.856   6.080   6.120   6.166   6.178   6.292
101 A1   53 B2  102 A1   80 B1  103 A1  104 A1   81 B1   82 B1                 
  6.452   6.542   6.583   6.624   6.651   7.141   7.275  10.273
105 A1   83 B1  106 A1  107 A1   84 B1  108 A1   85 B1   39 A2                 
 10.357  10.469  10.685  11.208  12.687  12.860  13.459  15.316
109 A1   54 B2   86 B1  110 A1   55 B2   87 B1  111 A1   56 B2                 
 15.447  15.474  15.523  15.569  15.785  16.386  16.441  16.452
 40 A2   57 B2   58 B2   41 A2   59 B2  112 A1   88 B1  113 A1                 
 16.543  16.570  16.571  16.740  16.754  16.765  16.804  16.811
 89 B1   90 B1  114 A1  115 A1  116 A1   91 B1   92 B1  117 A1                 
 16.953  16.955  16.989  17.125  17.198  17.213  17.916  18.669
 93 B1  118 A1  119 A1   94 B1   95 B1  120 A1  121 A1  122 A1                 
 36.924  36.927  36.929  36.935  36.946  36.959  36.962  41.471
 60 B2   96 B1   42 A2  123 A1   61 B2   97 B1  124 A1   43 A2                 
 41.476  41.510  41.513  41.520  41.521  41.531  41.536  41.540
125 A1   62 B2   44 A2   63 B2   98 B1   45 A2   64 B2  126 A1                 
 41.540  41.549  41.563  41.584  41.585  41.593  41.603  41.609
 99 B1  127 A1  100 B1   46 A2   65 B2   66 B2   47 A2   67 B2                 
 41.645  41.702  41.791  41.798  41.824  41.825  41.836  41.942
 48 A2  128 A1  129 A1  101 B1  130 A1  131 A1  102 B1  132 A1                 
 41.947  41.966  41.984  42.031  42.079  46.470  46.516  46.572
103 B1  104 B1  133 A1  105 B1  134 A1   49 A2  135 A1   68 B2                 
 46.676  47.025  55.046  55.240  55.861  81.014  81.108  81.132
106 B1  136 A1   69 B2  107 B1  137 A1   70 B2   50 A2   71 B2                 
 81.173  81.204  81.356  81.822  81.834  81.894  81.916  81.926
 72 B2   51 A2   73 B2  108 B1  138 A1  109 B1  139 A1  110 B1                 
 82.043  82.054  82.081  82.174  82.186  82.220  82.421  85.367
140 A1  111 B1  141 A1  142 A1  112 B1  143 A1  113 B1  144 A1                 
 86.092  86.179  86.744  86.832  88.017 104.607
114 B1  145 A1  115 B1  146 A1  147 A1  148 A1                                 
 --------------------------------------------------------------

          Ground-State Mulliken Net Atomic Charges

     Atom                 Charge (a.u.)
  ----------------------------------------
      1 H                     0.100061
      2 C                    -0.123783
      3 C                    -0.112625
      4 H                     0.111647
      5 C                    -0.133680
      6 H                     0.114902
      7 C                    -0.112625
      8 H                     0.111647
      9 C                    -0.123783
     10 H                     0.100061
     11 C                     0.036902
     12 Cl                    0.031275
  ----------------------------------------
  Sum of atomic charges =     0.000000

 -----------------------------------------------------------------
                    Cartesian Multipole Moments
 -----------------------------------------------------------------
    Charge (ESU x 10^10)
                 0.0000
    Dipole Moment (Debye)
         X      -0.0000      Y      -0.0000      Z      -0.4934
       Tot       0.4934
    Quadrupole Moments (Debye-Ang)
        XX     -42.9180     XY       0.0000     YY     -50.3371
        XZ       0.0000     YZ      -0.0000     ZZ     -45.9650
    Octopole Moments (Debye-Ang^2)
       XXX      -0.0000    XXY       0.0000    XYY      -0.0000
       YYY      -0.0000    XXZ       0.3266    XYZ      -0.0000
       YYZ       6.8710    XZZ      -0.0000    YZZ      -0.0000
       ZZZ      -1.2658
    Hexadecapole Moments (Debye-Ang^3)
      XXXX    -279.6799   XXXY      -0.0000   XXYY     -66.9076
      XYYY       0.0000   YYYY     -56.5251   XXXZ       0.0000
      XXYZ      -0.0000   XYYZ       0.0000   YYYZ      -0.0000
      XXZZ    -156.2848   XYZZ       0.0000   YYZZ    -130.6059
      XZZZ       0.0000   YZZZ      -0.0000   ZZZZ    -642.5313
 -----------------------------------------------------------------
 DrvMan is completing analytic gradient of the MP2 energy
 MP2 relaxed dipole moment
            1
    1  -0.0000000
    2  -0.0000000
    3  -0.1941284
	Magnitude:	 0.194 au	 0.493 Debye
 MP2 energy read as -690.677603
 Full Analytical Gradient of MP2 Energy (in au.)
             1             2             3             4             5
    1   -0.00979021    0.05899163    0.01289526   -0.00609710   -0.00000000
    2    0.00000000   -0.00000000    0.00000000   -0.00000000   -0.00000000
    3    0.00016227    0.08127421    0.00575492   -0.00271176    0.01213709
             6             7             8             9            10
    1   -0.00000000   -0.01289526    0.00609710   -0.05899163    0.00979021
    2    0.00000000    0.00000000   -0.00000000   -0.00000000    0.00000000
    3   -0.00746848    0.00575492   -0.00271176    0.08127421    0.00016227
            11            12
    1    0.00000000   -0.00000000
    2    0.00000000   -0.00000000
    3    0.45141809   -0.62504596
 Gradient time:  CPU 0.34 s  wall 0.27 s
 Geometry Optimization Parameters
   NAtoms,    NIC,     NZ,  NCons,   NDum,   NFix, NCnnct, MaxDiis
       12     107       0       0       0       0       0       0

 Cartesian Hessian Update
 Hessian Updated using BFGS Update


** GEOMETRY OPTIMIZATION IN DELOCALIZED INTERNAL COORDINATES **
   Searching for a Minimum

   Optimization Cycle:   3

                       Coordinates (Angstroms)
     ATOM                X               Y               Z
      1  H        -2.1295882858    0.0000000000    0.5591489392
      2  C        -1.1892612158    0.0000000000    0.0041429053
      3  C        -1.2015583382    0.0000000000   -1.3877201447
      4  H        -2.1509256281    0.0000000000   -1.9277369868
      5  C         0.0000000000    0.0000000000   -2.0885179636
      6  H         0.0000000000    0.0000000000   -3.1803640489
      7  C         1.2015583382    0.0000000000   -1.3877201447
      8  H         2.1509256281    0.0000000000   -1.9277369868
      9  C         1.1892612158    0.0000000000    0.0041429053
     10  H         2.1295882858    0.0000000000    0.5591489392
     11  C         0.0000000000    0.0000000000    0.6095696836
     12  Cl        0.0000000000    0.0000000000    1.9346890823
   Point Group: c2v   Number of degrees of freedom:    11


   Energy is   -690.677602538

 Hessian Updated using BFGS Update

 11 Hessian modes will be used to form the next step
  Hessian Eigenvalues:
     0.159999    0.160005    0.207949    0.220733    0.295848    0.342739
     0.342757    0.342771    0.448885    0.471118    1.241419

 Minimum Search - Taking Simple RFO Step
 Searching for Lamda that Minimizes Along All modes
 Value Taken    Lamda =  -0.15180356
 Calculated Step too Large.  Step scaled by  0.681555
 Step Taken.  Stepsize is  0.300000

                             Maximum     Tolerance    Cnvgd?
         Gradient           0.367938      0.000300      NO
         Displacement       0.215390      0.001200      NO
         Energy change     -0.169596      0.000001      NO


 New Cartesian Coordinates Obtained by Inverse Iteration

 Displacement from previous Coordinates is:  0.194300
 ----------------------------------------------------------------
             Standard Nuclear Orientation (Angstroms)
    I     Atom           X                Y                Z
 ----------------------------------------------------------------
    1      H      -2.1413103161     0.0000000000     0.5464263468
    2      C      -1.2053315461     0.0000000000    -0.0024346004
    3      C      -1.2086871001     0.0000000000    -1.3989491076
    4      H      -2.1495995115     0.0000000000    -1.9437828191
    5      C       0.0000000000     0.0000000000    -2.0960597053
    6      H       0.0000000000     0.0000000000    -3.1824088781
[...]
         Gradient           0.000042      0.000300     YES
         Displacement       0.000387      0.001200     YES
         Energy change     -0.000000      0.000001     YES


                       Distance Matrix (Angstroms)
             H (  1)   C (  2)   C (  3)   H (  4)   C (  5)   H (  6)
   C (  2)  1.080389
   C (  3)  2.158524  1.391908
   H (  4)  2.480698  2.140787  1.081351
   C (  5)  3.401657  2.416791  1.392453  2.149941
   H (  6)  4.295975  3.395439  2.148999  2.478677  1.080854
   C (  7)  3.868869  2.788569  2.408591  3.390576  1.392453  2.148999
   H (  8)  4.950189  3.869912  3.390576  4.287438  2.149941  2.478677
   C (  9)  3.397442  2.424117  2.788569  3.869912  2.416791  3.395439
   H ( 10)  4.280064  3.397442  3.868869  4.950189  3.401657  4.295975
   C ( 11)  2.143955  1.391205  2.398981  3.377780  2.773795  3.854649
   Cl( 12)  2.835750  2.701059  3.991729  4.841710  4.504726  5.585580
             C (  7)   H (  8)   C (  9)   H ( 10)   C ( 11)
   H (  8)  1.081351
   C (  9)  1.391908  2.140787
   H ( 10)  2.158524  2.480698  1.080389
   C ( 11)  2.398981  3.377780  1.391205  2.143955
   Cl( 12)  3.991729  4.841710  2.701059  2.835750  1.730931

 Final energy is   -690.85973417921377     


 ******************************
 **  OPTIMIZATION CONVERGED  **
 ******************************

                       Coordinates (Angstroms)
     ATOM                X               Y               Z
      1  H        -2.1400320233    0.0000000000    0.5090177858
      2  C        -1.2120583232    0.0000000000   -0.0442490642
      3  C        -1.2042956497    0.0000000000   -1.4361358281
      4  H        -2.1437187877    0.0000000000   -1.9716770234
      5  C         0.0000000000    0.0000000000   -2.1351330277
      6  H         0.0000000000    0.0000000000   -3.2159870334
      7  C         1.2042956497    0.0000000000   -1.4361358281
      8  H         2.1437187877    0.0000000000   -1.9716770234
      9  C         1.2120583232    0.0000000000   -0.0442490642
     10  H         2.1400320233    0.0000000000    0.5090177858
     11  C         0.0000000000    0.0000000000    0.6386615242
     12  Cl        0.0000000000    0.0000000000    2.3695929760

Z-matrix Print:
$molecule
0 1
Cl
C  1 1.730931
C  2 1.391205 1 119.398235
H  3 1.080389 2 119.797961 1 -0.000000 0
C  2 1.391205 1 119.398235 3 -180.000000 0
H  5 1.080389 2 119.797961 1 -0.000000 0
C  3 1.391908 2 119.078695 1 -180.000000 0
H  7 1.081351 3 119.366823 2 -180.000000 0
C  5 1.391908 2 119.078695 1 -180.000000 0
H  9 1.081351 5 119.366823 2 -180.000000 0
C  7 1.392453 3 120.451274 2 -0.000000 0
H  11 1.080854 7 120.131734 3 -180.000000 0
$end


 --------------------------------------------------------------
             Orbital Energies (a.u.) and Symmetries
 --------------------------------------------------------------

 Alpha MOs, Restricted
 -- Occupied --                  
-104.84  -11.30  -11.25  -11.25  -11.25  -11.25  -11.24  -10.56
  1 A1    2 A1    3 A1    1 B1    4 A1    2 B1    5 A1    6 A1                 
 -8.030  -8.028  -8.028  -1.191  -1.120  -1.032  -0.996  -0.846
  7 A1    3 B1    1 B2    8 A1    9 A1    4 B1   10 A1    5 B1                 
 -0.820  -0.712  -0.648  -0.647  -0.603  -0.590  -0.545  -0.516
 11 A1   12 A1   13 A1    6 B1    7 B1   14 A1    2 B2    8 B1                 
 -0.512  -0.469  -0.454  -0.352  -0.335
 15 A1    3 B2    9 B1    1 A2    4 B2                                         
 -- Virtual --                   
  0.114   0.115   0.139   0.165   0.173   0.202   0.206   0.212
  2 A2    5 B2   16 A1   10 B1   17 A1   18 A1   11 B1   19 A1                 
  0.309   0.312   0.345   0.378   0.388   0.395   0.420   0.430
 20 A1    6 B2   12 B1   13 B1   21 A1   22 A1    7 B2   23 A1                 
  0.433   0.459   0.466   0.484   0.488   0.495   0.515   0.521
 14 B1    3 A2    8 B2   15 B1   24 A1   25 A1   16 B1    9 B2                 
  0.547   0.550   0.567   0.575   0.576   0.587   0.589   0.593
  4 A2   26 A1   27 A1   10 B2   17 B1   11 B2   18 B1   28 A1                 
  0.621   0.639   0.644   0.651   0.670   0.688   0.696   0.725
 29 A1   19 B1    5 A2   30 A1   12 B2   31 A1   20 B1   21 B1                 
  0.729   0.775   0.798   0.810   0.828   0.844   0.848   0.872
 32 A1   13 B2   33 A1   22 B1   34 A1    6 A2    7 A2   23 B1                 
  0.916   0.928   0.939   0.956   0.963   0.996   1.010   1.016
 14 B2   24 B1   35 A1    8 A2   36 A1   37 A1   25 B1   26 B1                 
  1.045   1.068   1.090   1.099   1.170   1.172   1.203   1.205
 38 A1   15 B2   39 A1   27 B1   16 B2   40 A1   17 B2    9 A2                 
  1.215   1.232   1.247   1.271   1.284   1.324   1.356   1.376
 41 A1   42 A1   28 B1   18 B2   10 A2   43 A1   29 B1   44 A1                 
  1.404   1.480   1.481   1.482   1.492   1.499   1.520   1.524
 30 B1   31 B1   19 B2   45 A1   32 B1   11 A2   33 B1   46 A1                 
  1.556   1.561   1.564   1.579   1.588   1.593   1.609   1.644
 20 B2   34 B1   47 A1   12 A2   48 A1   35 B1   49 A1   36 B1                 
  1.693   1.744   1.797   1.856   1.950   2.014   2.064   2.086
 50 A1   21 B2   13 A2   51 A1   37 B1   52 A1   38 B1   53 A1                 
  2.106   2.117   2.136   2.157   2.179   2.246   2.272   2.277
 39 B1   14 A2   54 A1   22 B2   55 A1   23 B2   56 A1   40 B1                 
  2.337   2.347   2.349   2.378   2.406   2.412   2.415   2.432
 15 A2   24 B2   57 A1   41 B1   16 A2   58 A1   25 B2   42 B1                 
  2.442   2.507   2.512   2.527   2.569   2.592   2.624   2.639
 26 B2   43 B1   17 A2   27 B2   59 A1   44 B1   28 B2   60 A1                 
  2.682   2.683   2.683   2.715   2.754   2.776   2.778   2.800
 61 A1   18 A2   45 B1   62 A1   46 B1   63 A1   29 B2   47 B1                 
  2.813   2.849   2.866   2.900   2.948   2.948   2.960   2.975
 64 A1   30 B2   65 A1   48 B1   31 B2   19 A2   49 B1   66 A1                 
  2.993   3.017   3.044   3.069   3.093   3.106   3.119   3.145
 32 B2   33 B2   20 A2   67 A1   21 A2   50 B1   68 A1   51 B1                 
  3.190   3.215   3.221   3.249   3.251   3.253   3.271   3.297
 69 A1   34 B2   22 A2   35 B2   52 B1   36 B2   70 A1   53 B1                 
  3.311   3.331   3.339   3.351   3.366   3.395   3.414   3.419
 71 A1   54 B1   72 A1   73 A1   23 A2   74 A1   55 B1   24 A2                 
  3.451   3.456   3.465   3.469   3.529   3.530   3.546   3.546
 75 A1   25 A2   37 B2   56 B1   57 B1   76 A1   77 A1   38 B2                 
  3.548   3.602   3.632   3.635   3.668   3.673   3.674   3.697
 58 B1   59 B1   39 B2   26 A2   40 B2   78 A1   27 A2   60 B1                 
  3.711   3.718   3.786   3.813   3.860   3.904   3.916   3.934
 79 A1   41 B2   28 A2   80 A1   81 A1   61 B1   82 A1   83 A1                 
  3.953   3.977   3.992   3.994   3.996   4.067   4.070   4.092
 62 B1   29 A2   63 B1   42 B2   84 A1   64 B1   30 A2   43 B2                 
  4.101   4.116   4.135   4.140   4.157   4.176   4.179   4.194
 65 B1   85 A1   44 B2   31 A2   66 B1   86 A1   45 B2   32 A2                 
  4.247   4.268   4.299   4.370   4.380   4.403   4.454   4.488
 87 A1   67 B1   88 A1   46 B2   68 B1   33 A2   89 A1   47 B2                 
  4.493   4.528   4.534   4.586   4.602   4.636   4.637   4.643
 69 B1   70 B1   90 A1   91 A1   34 A2   35 A2   71 B1   92 A1                 
  4.645   4.662   4.680   4.686   4.729   4.848   4.949   5.013
 48 B2   93 A1   72 B1   49 B2   94 A1   73 B1   95 A1   50 B2                 
  5.036   5.049   5.100   5.102   5.132   5.194   5.238   5.298
 51 B2   74 B1   96 A1   36 A2   37 A2   97 A1   52 B2   75 B1                 
  5.333   5.363   5.368   5.464   5.506   5.517   5.598   5.607
 98 A1   38 A2   76 B1   99 A1   77 B1   78 B1  100 A1   79 B1                 
  5.697   5.723   5.762   5.988   6.082   6.119   6.146   6.201
101 A1   53 B2  102 A1   80 B1  103 A1   81 B1  104 A1   82 B1                 
  6.332   6.422   6.547   6.570   6.633   7.048   7.151  10.253
105 A1   83 B1  106 A1  107 A1   84 B1  108 A1   85 B1   39 A2                 
 10.288  10.316  10.391  10.505  12.640  12.738  13.074  15.283
109 A1   54 B2   86 B1  110 A1   55 B2   87 B1  111 A1   56 B2                 
 15.420  15.426  15.480  15.494  15.748  16.310  16.368  16.437
 57 B2   40 A2   58 B2   41 A2   59 B2  112 A1  113 A1   88 B1                 
 16.478  16.509  16.567  16.656  16.683  16.725  16.731  16.757
 89 B1  114 A1   90 B1  115 A1  116 A1   91 B1  117 A1   92 B1                 
 16.782  16.804  16.830  17.012  17.046  17.154  17.812  18.369
118 A1   93 B1  119 A1  120 A1   94 B1   95 B1  121 A1  122 A1                 
 36.919  36.922  36.923  36.924  36.926  36.934  36.948  41.443
 42 A2  123 A1   60 B2   96 B1   61 B2   97 B1  124 A1  125 A1                 
 41.443  41.451  41.487  41.488  41.502  41.506  41.512  41.516
 43 A2   62 B2   44 A2   98 B1   63 B2  126 A1   64 B2   45 A2                 
 41.525  41.530  41.532  41.548  41.561  41.564  41.572  41.574
 99 B1  100 B1  127 A1   65 B2  128 A1   46 A2   47 A2   66 B2                 
 41.576  41.598  41.710  41.771  41.790  41.807  41.817  41.897
 67 B2   48 A2  129 A1  101 B1  130 A1  102 B1  131 A1  103 B1                 
 41.916  41.933  41.939  41.947  41.984  46.452  46.471  46.489
132 A1  133 A1  104 B1  105 B1  134 A1   49 A2  135 A1   68 B2                 
 46.529  46.589  54.976  55.087  55.486  80.981  81.076  81.089
106 B1  136 A1   69 B2  107 B1  137 A1   70 B2   71 B2   50 A2                 
 81.129  81.143  81.319  81.747  81.810  81.828  81.864  81.903
 72 B2   51 A2   73 B2  138 A1  108 B1  109 B1  139 A1  110 B1                 
 81.963  82.020  82.020  82.048  82.056  82.103  82.403  85.253
140 A1  111 B1  141 A1  142 A1  112 B1  143 A1  113 B1  144 A1                 
 85.946  86.015  86.547  86.620  87.812 103.892
145 A1  114 B1  146 A1  115 B1  147 A1  148 A1                                 

 Beta MOs, Restricted
 -- Occupied --                  
-104.84  -11.30  -11.25  -11.25  -11.25  -11.25  -11.24  -10.56
  1 A1    2 A1    3 A1    1 B1    4 A1    2 B1    5 A1    6 A1                 
 -8.030  -8.028  -8.028  -1.191  -1.120  -1.032  -0.996  -0.846
  7 A1    3 B1    1 B2    8 A1    9 A1    4 B1   10 A1    5 B1                 
 -0.820  -0.712  -0.648  -0.647  -0.603  -0.590  -0.545  -0.516
 11 A1   12 A1   13 A1    6 B1    7 B1   14 A1    2 B2    8 B1                 
 -0.512  -0.469  -0.454  -0.352  -0.335
 15 A1    3 B2    9 B1    1 A2    4 B2                                         
 -- Virtual --                   
  0.114   0.115   0.139   0.165   0.173   0.202   0.206   0.212
  2 A2    5 B2   16 A1   10 B1   17 A1   18 A1   11 B1   19 A1                 
  0.309   0.312   0.345   0.378   0.388   0.395   0.420   0.430
 20 A1    6 B2   12 B1   13 B1   21 A1   22 A1    7 B2   23 A1                 
  0.433   0.459   0.466   0.484   0.488   0.495   0.515   0.521
 14 B1    3 A2    8 B2   15 B1   24 A1   25 A1   16 B1    9 B2                 
  0.547   0.550   0.567   0.575   0.576   0.587   0.589   0.593
  4 A2   26 A1   27 A1   10 B2   17 B1   11 B2   18 B1   28 A1                 
  0.621   0.639   0.644   0.651   0.670   0.688   0.696   0.725
 29 A1   19 B1    5 A2   30 A1   12 B2   31 A1   20 B1   21 B1                 
  0.729   0.775   0.798   0.810   0.828   0.844   0.848   0.872
 32 A1   13 B2   33 A1   22 B1   34 A1    6 A2    7 A2   23 B1                 
  0.916   0.928   0.939   0.956   0.963   0.996   1.010   1.016
 14 B2   24 B1   35 A1    8 A2   36 A1   37 A1   25 B1   26 B1                 
  1.045   1.068   1.090   1.099   1.170   1.172   1.203   1.205
 38 A1   15 B2   39 A1   27 B1   16 B2   40 A1   17 B2    9 A2                 
  1.215   1.232   1.247   1.271   1.284   1.324   1.356   1.376
 41 A1   42 A1   28 B1   18 B2   10 A2   43 A1   29 B1   44 A1                 
  1.404   1.480   1.481   1.482   1.492   1.499   1.520   1.524
 30 B1   31 B1   19 B2   45 A1   32 B1   11 A2   33 B1   46 A1                 
  1.556   1.561   1.564   1.579   1.588   1.593   1.609   1.644
 20 B2   34 B1   47 A1   12 A2   48 A1   35 B1   49 A1   36 B1                 
  1.693   1.744   1.797   1.856   1.950   2.014   2.064   2.086
 50 A1   21 B2   13 A2   51 A1   37 B1   52 A1   38 B1   53 A1                 
  2.106   2.117   2.136   2.157   2.179   2.246   2.272   2.277
 39 B1   14 A2   54 A1   22 B2   55 A1   23 B2   56 A1   40 B1                 
  2.337   2.347   2.349   2.378   2.406   2.412   2.415   2.432
 15 A2   24 B2   57 A1   41 B1   16 A2   58 A1   25 B2   42 B1                 
  2.442   2.507   2.512   2.527   2.569   2.592   2.624   2.639
 26 B2   43 B1   17 A2   27 B2   59 A1   44 B1   28 B2   60 A1                 
  2.682   2.683   2.683   2.715   2.754   2.776   2.778   2.800
 61 A1   18 A2   45 B1   62 A1   46 B1   63 A1   29 B2   47 B1                 
  2.813   2.849   2.866   2.900   2.948   2.948   2.960   2.975
 64 A1   30 B2   65 A1   48 B1   31 B2   19 A2   49 B1   66 A1                 
  2.993   3.017   3.044   3.069   3.093   3.106   3.119   3.145
 32 B2   33 B2   20 A2   67 A1   21 A2   50 B1   68 A1   51 B1                 
  3.190   3.215   3.221   3.249   3.251   3.253   3.271   3.297
 69 A1   34 B2   22 A2   35 B2   52 B1   36 B2   70 A1   53 B1                 
  3.311   3.331   3.339   3.351   3.366   3.395   3.414   3.419
 71 A1   54 B1   72 A1   73 A1   23 A2   74 A1   55 B1   24 A2                 
  3.451   3.456   3.465   3.469   3.529   3.530   3.546   3.546
 75 A1   25 A2   37 B2   56 B1   57 B1   76 A1   77 A1   38 B2                 
  3.548   3.602   3.632   3.635   3.668   3.673   3.674   3.697
 58 B1   59 B1   39 B2   26 A2   40 B2   78 A1   27 A2   60 B1                 
  3.711   3.718   3.786   3.813   3.860   3.904   3.916   3.934
 79 A1   41 B2   28 A2   80 A1   81 A1   61 B1   82 A1   83 A1                 
  3.953   3.977   3.992   3.994   3.996   4.067   4.070   4.092
 62 B1   29 A2   63 B1   42 B2   84 A1   64 B1   30 A2   43 B2                 
  4.101   4.116   4.135   4.140   4.157   4.176   4.179   4.194
 65 B1   85 A1   44 B2   31 A2   66 B1   86 A1   45 B2   32 A2                 
  4.247   4.268   4.299   4.370   4.380   4.403   4.454   4.488
 87 A1   67 B1   88 A1   46 B2   68 B1   33 A2   89 A1   47 B2                 
  4.493   4.528   4.534   4.586   4.602   4.636   4.637   4.643
 69 B1   70 B1   90 A1   91 A1   34 A2   35 A2   71 B1   92 A1                 
  4.645   4.662   4.680   4.686   4.729   4.848   4.949   5.013
 48 B2   93 A1   72 B1   49 B2   94 A1   73 B1   95 A1   50 B2                 
  5.036   5.049   5.100   5.102   5.132   5.194   5.238   5.298
 51 B2   74 B1   96 A1   36 A2   37 A2   97 A1   52 B2   75 B1                 
  5.333   5.363   5.368   5.464   5.506   5.517   5.598   5.607
 98 A1   38 A2   76 B1   99 A1   77 B1   78 B1  100 A1   79 B1                 
  5.697   5.723   5.762   5.988   6.082   6.119   6.146   6.201
101 A1   53 B2  102 A1   80 B1  103 A1   81 B1  104 A1   82 B1                 
  6.332   6.422   6.547   6.570   6.633   7.048   7.151  10.253
105 A1   83 B1  106 A1  107 A1   84 B1  108 A1   85 B1   39 A2                 
 10.288  10.316  10.391  10.505  12.640  12.738  13.074  15.283
109 A1   54 B2   86 B1  110 A1   55 B2   87 B1  111 A1   56 B2                 
 15.420  15.426  15.480  15.494  15.748  16.310  16.368  16.437
 57 B2   40 A2   58 B2   41 A2   59 B2  112 A1  113 A1   88 B1                 
 16.478  16.509  16.567  16.656  16.683  16.725  16.731  16.757
 89 B1  114 A1   90 B1  115 A1  116 A1   91 B1  117 A1   92 B1                 
 16.782  16.804  16.830  17.012  17.046  17.154  17.812  18.369
118 A1   93 B1  119 A1  120 A1   94 B1   95 B1  121 A1  122 A1                 
 36.919  36.922  36.923  36.924  36.926  36.934  36.948  41.443
 42 A2  123 A1   60 B2   96 B1   61 B2   97 B1  124 A1  125 A1                 
 41.443  41.451  41.487  41.488  41.502  41.506  41.512  41.516
 43 A2   62 B2   44 A2   98 B1   63 B2  126 A1   64 B2   45 A2                 
 41.525  41.530  41.532  41.548  41.561  41.564  41.572  41.574
 99 B1  100 B1  127 A1   65 B2  128 A1   46 A2   47 A2   66 B2                 
 41.576  41.598  41.710  41.771  41.790  41.807  41.817  41.897
 67 B2   48 A2  129 A1  101 B1  130 A1  102 B1  131 A1  103 B1                 
 41.916  41.933  41.939  41.947  41.984  46.452  46.471  46.489
132 A1  133 A1  104 B1  105 B1  134 A1   49 A2  135 A1   68 B2                 
 46.529  46.589  54.976  55.087  55.486  80.981  81.076  81.089
106 B1  136 A1   69 B2  107 B1  137 A1   70 B2   71 B2   50 A2                 
 81.129  81.143  81.319  81.747  81.810  81.828  81.864  81.903
 72 B2   51 A2   73 B2  138 A1  108 B1  109 B1  139 A1  110 B1                 
 81.963  82.020  82.020  82.048  82.056  82.103  82.403  85.253
140 A1  111 B1  141 A1  142 A1  112 B1  143 A1  113 B1  144 A1                 
 85.946  86.015  86.547  86.620  87.812 103.892
145 A1  114 B1  146 A1  115 B1  147 A1  148 A1                                 
 --------------------------------------------------------------

          Ground-State Mulliken Net Atomic Charges

     Atom                 Charge (a.u.)
  ----------------------------------------
      1 H                     0.124118
      2 C                    -0.103954
      3 C                    -0.106583
      4 H                     0.120714
      5 C                    -0.114334
      6 H                     0.119435
      7 C                    -0.106583
      8 H                     0.120714
      9 C                    -0.103954
     10 H                     0.124118
     11 C                     0.040377
     12 Cl                   -0.114068
  ----------------------------------------
  Sum of atomic charges =     0.000000

 -----------------------------------------------------------------
                    Cartesian Multipole Moments
 -----------------------------------------------------------------
    Charge (ESU x 10^10)
                 0.0000
    Dipole Moment (Debye)
         X       0.0000      Y      -0.0000      Z      -1.6577
       Tot       1.6577
    Quadrupole Moments (Debye-Ang)
        XX     -42.7044     XY      -0.0000     YY     -51.4218
        XZ      -0.0000     YZ      -0.0000     ZZ     -46.4671
    Octopole Moments (Debye-Ang^2)
       XXX       0.0000    XXY      -0.0000    XYY       0.0000
       YYY      -0.0000    XXZ      -6.0704    XYZ      -0.0000
       YYZ       0.5323    XZZ       0.0000    YZZ      -0.0000
       ZZZ     -20.3054
    Hexadecapole Moments (Debye-Ang^3)
      XXXX    -279.8533   XXXY      -0.0000   XXYY     -67.4758
      XYYY      -0.0000   YYYY     -58.8583   XXXZ      -0.0000
      XXYZ      -0.0000   XYYZ      -0.0000   YYYZ      -0.0000
      XXZZ    -182.1948   XYZZ      -0.0000   YYZZ    -159.6961
      XZZZ      -0.0000   YZZZ      -0.0000   ZZZZ    -789.9626
 -----------------------------------------------------------------
Archival summary:
1\1\node3\OPT\ProcedureUnspecified\BasisUnspecified\l165\krylov\WedSep516:46:482018WedSep516:46:482018\0\\#,OPT,ProcedureUnspecified,BasisUnspecified,\\0,1\Cl\C,1,1.73093\C,2,1.39121,1,119.398\H,3,1.08039,2,119.798,1,-0,0\C,2,1.39121,1,119.398,3,-180,0\H,5,1.08039,2,119.798,1,-0,0\C,3,1.39191,2,119.079,1,-180,0\H,7,1.08135,3,119.367,2,-180,0\C,5,1.39191,2,119.079,1,-180,0\H,9,1.08135,5,119.367,2,-180,0\C,7,1.39245,3,120.451,2,-0,0\H,11,1.08085,7,120.132,3,-180,0\\HF=-689.717387\\@

 Total job time:  19412.90s(wall), 77251.28s(cpu) 
 Wed Sep  5 16:46:48 2018

        *************************************************************
        *                                                           *
        *  Thank you very much for using Q-Chem.  Have a nice day.  *
        *                                                           *
        *************************************************************


