Q-Chem Developer Version!
                  Welcome to Q-Chem
     A Quantum Leap Into The Future Of Chemistry


 Q-Chem 5.1, Q-Chem, Inc., Pleasanton, CA (2018)

 Yihan Shao,  Zhengting Gan,  E. Epifanovsky,  A. T. B. Gilbert,  M. Wormit,  
 J. Kussmann,  A. W. Lange,  A. Behn,  Jia Deng,  Xintian Feng,  D. Ghosh,  
 M. Goldey,  P. R. Horn,  L. D. Jacobson,  I. Kaliman,  T. Kus,  A. Landau,  
 Jie Liu,  E. I. Proynov,  R. M. Richard,  R. P. Steele,  E. J. Sundstrom,  
 H. L. Woodcock III,  P. M. Zimmerman,  D. Zuev,  B. Albrecht,  E. Alguire,  
 S. A. Baeppler,  D. Barton,  Z. Benda,  Y. A. Bernard,  E. J. Berquist,  
 K. B. Bravaya,  H. Burton,  D. Casanova,  Chun-Min Chang,  Yunqing Chen,  
 A. Chien,  K. D. Closser,  M. P. Coons,  S. Coriani,  S. Dasgupta,  
 A. L. Dempwolff,  M. Diedenhofen,  Hainam Do,  R. G. Edgar,  Po-Tung Fang,  
 S. Faraji,  S. Fatehi,  Qingguo Feng,  K. D. Fenk,  J. Fosso-Tande,  
 Qinghui Ge,  A. Ghysels,  G. Gidofalvi,  J. Gomes,  J. Gonthier,  A. Gunina,  
 D. Hait,  M. W. D. Hanson-Heine,  P. H. P. Harbach,  A. W. Hauser,  
 J. E. Herr,  E. G. Hohenstein,  Z. C. Holden,  Kerwin Hui,  B. C. Huynh,  
 T.-C. Jagau,  Hyunjun Ji,  B. Kaduk,  K. Khistyaev,  Jaehoon Kim,  
 P. Klunzinger,  K. Koh,  D. Kosenkov,  L. Koulias,  T. Kowalczyk,  
 C. M. Krauter,  A. Kunitsa,  Ka Un Lao,  A. Laurent,  K. V. Lawler,  
 Joonho Lee,  D. Lefrancois,  S. Lehtola,  D. S. Levine,  Yi-Pei Li,  
 You-Sheng Lin,  Fenglai Liu,  E. Livshits,  A. Luenser,  P. Manohar,  
 E. Mansoor,  S. F. Manzer,  Shan-Ping Mao,  Yuezhi Mao,  N. Mardirossian,  
 A. V. Marenich,  T. Markovich,  L. A. Martinez-Martinez,  S. A. Maurer,  
 N. J. Mayhall,  S. C. McKenzie,  J.-M. Mewes,  A. F. Morrison,  
 J. W. Mullinax,  K. Nanda,  T. S. Nguyen-Beck,  R. Olivares-Amaya,  
 J. A. Parkhill,  T. M. Perrine,  F. Plasser,  P. Pokhilko,  S. Prager,  
 A. Prociuk,  E. Ramos,  D. R. Rehn,  F. Rob,  M. Schneider,  N. Sergueev,  
 S. M. Sharada,  S. Sharma,  D. W. Small,  T. Stauch,  T. Stein,  
 Yu-Chuan Su,  A. J. W. Thom,  A. Tkatchenko,  T. Tsuchimochi,  N. M. Tubman,  
 L. Vogt,  M. L. Vidal,  O. Vydrov,  M. A. Watson,  J. Wenzel,  
 M. de Wergifosse,  T. A. Wesolowski,  A. White,  J. Witte,  A. Yamada,  
 Jun Yang,  K. Yao,  S. Yeganeh,  S. R. Yost,  Zhi-Qiang You,  A. Zech,  
 Igor Ying Zhang,  Xing Zhang,  Yan Zhao,  Ying Zhu,  B. R. Brooks,  
 G. K. L. Chan,  C. J. Cramer,  M. S. Gordon,  W. J. Hehre,  A. Klamt,  
 M. W. Schmidt,  C. D. Sherrill,  D. G. Truhlar,  A. Aspuru-Guzik,  R. Baer,  
 A. T. Bell,  N. A. Besley,  Jeng-Da Chai,  A. E. DePrince, III,  
 R. A. DiStasio Jr.,  A. Dreuw,  B. D. Dunietz,  T. R. Furlani,  
 Chao-Ping Hsu,  Yousung Jung,  Jing Kong,  D. S. Lambrecht,  WanZhen Liang,  
 C. Ochsenfeld,  V. A. Rassolov,  L. V. Slipchenko,  J. E. Subotnik,  
 T. Van Voorhis,  J. M. Herbert,  A. I. Krylov,  P. M. W. Gill,  M. Head-Gordon

 Contributors to earlier versions of Q-Chem not listed above: 
 R. D. Adamson,  B. Austin,  J. Baker,  G. J. O. Beran,  K. Brandhorst,  
 S. T. Brown,  E. F. C. Byrd,  A. K. Chakraborty,  C.-L. Cheng,  
 Siu Hung Chien,  D. M. Chipman,  D. L. Crittenden,  H. Dachsel,  
 R. J. Doerksen,  A. D. Dutoi,  L. Fusti-Molnar,  W. A. Goddard III,  
 A. Golubeva-Zadorozhnaya,  S. R. Gwaltney,  G. Hawkins,  A. Heyden,  
 S. Hirata,  G. Kedziora,  F. J. Keil,  C. Kelley,  Jihan Kim,  R. A. King,  
 R. Z. Khaliullin,  P. P. Korambath,  W. Kurlancheek,  A. M. Lee,  M. S. Lee,  
 S. V. Levchenko,  Ching Yeh Lin,  D. Liotard,  R. C. Lochan,  I. Lotan,  
 P. E. Maslen,  N. Nair,  D. P. O'Neill,  D. Neuhauser,  E. Neuscamman,  
 C. M. Oana,  R. Olson,  B. Peters,  R. Peverati,  P. A. Pieniazek,  
 Y. M. Rhee,  J. Ritchie,  M. A. Rohrdanz,  E. Rosta,  N. J. Russ,  
 H. F. Schaefer III,  N. E. Schultz,  N. Shenvi,  A. C. Simmonett,  A. Sodt,  
 D. Stuck,  K. S. Thanthiriwatte,  V. Vanovschi,  Tao Wang,  A. Warshel,  
 C. F. Williams,  Q. Wu,  X. Xu,  W. Zhang

 Please cite Q-Chem as follows:
 Y. Shao et al., Mol. Phys. 113, 184-215 (2015)
 DOI: 10.1080/00268976.2014.952696

 Q-Chem 5.1.1 for Intel X86 EM64T Linux

 Parts of Q-Chem use Armadillo 8.300.2 (Tropical Shenanigans).
 http://arma.sourceforge.net/

 Q-Chem begins on Thu Sep  6 00:12:49 2018  

node20
Host: 0

     Scratch files written to /scratch/krylov/qchem10222//
Core orbitals will be frozen
Input Ideriv = 1
Curr. Ideriv = -1
Max.  Ideriv = 1

Checking the input file for inconsistencies... 	...done.

--------------------------------------------------------------
User input:
--------------------------------------------------------------
$molecule
0 1
 H        -2.1400320233    0.0000000000    0.5090177858
 C        -1.2120583232    0.0000000000   -0.0442490642
 C        -1.2042956497    0.0000000000   -1.4361358281
 H        -2.1437187877    0.0000000000   -1.9716770234
 C         0.0000000000    0.0000000000   -2.1351330277
 H         0.0000000000    0.0000000000   -3.2159870334
 C         1.2042956497    0.0000000000   -1.4361358281
 H         2.1437187877    0.0000000000   -1.9716770234
 C         1.2120583232    0.0000000000   -0.0442490642
 H         2.1400320233    0.0000000000    0.5090177858
 C         0.0000000000    0.0000000000    0.6386615242
 Cl        0.0000000000    0.0000000000    2.3695929760
$end

$rem
   BASIS  = cc-pVTZ
   JOB_TYPE  =  SP
   METHOD  =  EOM-CCSD
   SCF_CONVERGENCE  =  8
   IP_STATES = [2,1,3,3]
   CC_MEMORY = 80000   
! use SP code 
  cc_single_prec=1
  eom_single_prec=1
  cc_sp_dm = 1
  cc_sp_t_conv = 4
  cc_sp_e_conv = 6
  cc_erase_dp_integrals = 1
$end

--------------------------------------------------------------
 ----------------------------------------------------------------
             Standard Nuclear Orientation (Angstroms)
    I     Atom           X                Y                Z
 ----------------------------------------------------------------
    1      H      -2.1400320233     0.0000000000     0.3814604176
    2      C      -1.2120583232     0.0000000000    -0.1718064324
    3      C      -1.2042956497     0.0000000000    -1.5636931963
    4      H      -2.1437187877     0.0000000000    -2.0992343916
    5      C      -0.0000000000     0.0000000000    -2.2626903959
    6      H      -0.0000000000     0.0000000000    -3.3435444016
    7      C       1.2042956497     0.0000000000    -1.5636931963
    8      H       2.1437187877     0.0000000000    -2.0992343916
    9      C       1.2120583232    -0.0000000000    -0.1718064324
   10      H       2.1400320233    -0.0000000000     0.3814604176
   11      C       0.0000000000    -0.0000000000     0.5111041560
   12      Cl      0.0000000000    -0.0000000000     2.2420356078
 ----------------------------------------------------------------
 Molecular Point Group                 C2v   NOp =  4
 Largest Abelian Subgroup              C2v   NOp =  4
 Nuclear Repulsion Energy =   316.4076139427 hartrees
 There are       29 alpha and       29 beta electrons
 Requested basis set is cc-pVTZ
 There are 102 shells and 284 basis functions
MEM_TOTAL is adjusted to CC_MEMORY + MEM_STATIC!
 Total memory of 80192MB is distributed as follows: 
   QALLOC including MEM_STATIC uses 192MB
   MEM_STATIC is set to 192MB
   CCMAN JOB total memory use is  80000MB
 Warning: actual memory use might exceed 80192MB

 Total QAlloc Memory Limit    192 MB
 Mega-Array Size       188 MB
 MEM_STATIC part       192 MB

                       Distance Matrix (Angstroms)
             H (  1)   C (  2)   C (  3)   H (  4)   C (  5)   H (  6)
   C (  2)  1.080389
   C (  3)  2.158524  1.391908
   H (  4)  2.480698  2.140787  1.081351
   C (  5)  3.401657  2.416791  1.392453  2.149941
   H (  6)  4.295975  3.395439  2.148999  2.478677  1.080854
   C (  7)  3.868869  2.788569  2.408591  3.390576  1.392453  2.148999
   H (  8)  4.950189  3.869912  3.390576  4.287438  2.149941  2.478677
   C (  9)  3.397442  2.424117  2.788569  3.869912  2.416791  3.395439
   H ( 10)  4.280064  3.397442  3.868869  4.950189  3.401657  4.295975
   C ( 11)  2.143955  1.391205  2.398981  3.377780  2.773795  3.854649
   Cl( 12)  2.835750  2.701059  3.991729  4.841710  4.504726  5.585580
             C (  7)   H (  8)   C (  9)   H ( 10)   C ( 11)
   H (  8)  1.081351
   C (  9)  1.391908  2.140787
   H ( 10)  2.158524  2.480698  1.080389
   C ( 11)  2.398981  3.377780  1.391205  2.143955
   Cl( 12)  3.991729  4.841710  2.701059  2.835750  1.730931

 A cutoff of  1.0D-14 yielded   4992 shell pairs
 There are     39220 function pairs (     51259 Cartesian)

 -------------------------------------------------------
 OpenMP Integral Computing Module                       
 Release: version 1.0, May 2013, Q-Chem Inc. Pittsburgh 
 -------------------------------------------------------
 Integral Job Info:
 Integral job number is                      11
 Integral operator is                         1
 short-range coefficients                     0
 long-range coefficients              100000000
 Omega coefficients                           0
 if combine SR and LR in K                    0
 Integral screening is                        0
 Integral computing path is                   2
 max size of driver memory is            800000
 size of driver memory is                776718
 size of scratch memory is             26349924
 max col of scratch BK array              10000
 max len of scratch array in speh3          662
 max len of scratch index in speh4           32
 max int batch size is                      520
 min int batch size is                       52
 fixed nKL is                                52
 max L of basis functions is                  3
 order of int derivative is                   0
 number of shells is                        102
 number of basis is                         324
 number of cartesian basis is               324
 number of contracted shell pairs          4992
 number of primitive shell pairs          17918
 maxK2 (contraction) of shell pair          121
 max number of K2 of shell pair               1
 max number of CS2 of shell pair            618
 max number of PS2 of shell pair           2184
 mem total for path MDJ                  647656
 -------------------------------------------------------
 Smallest overlap matrix eigenvalue = 3.80E-05

 Scale SEOQF with 1.000000e-01/1.000000e+00/1.000000e-01

 Standard Electronic Orientation quadrupole field applied
 Nucleus-field energy     =    -0.0000000161 hartrees
 Guess from superposition of atomic densities
 Warning:  Energy on first SCF cycle will be non-variational
 SAD guess density has 58.000000 electrons

 -----------------------------------------------------------------------
  General SCF calculation program by
  Eric Jon Sundstrom, Paul Horn, Yuezhi Mao, Dmitri Zuev, Alec White,
  David Stuck, Shaama M.S., Shane Yost, Joonho Lee, David Small,
  Daniel Levine, Susi Lehtola, Hugh Burton, Evgeny Epifanovsky
 -----------------------------------------------------------------------
 Hartree-Fock
 using 8 threads for integral computing
 -------------------------------------------------------
 OpenMP Integral computing Module                
 Release: version 2.0, May 2017, Q-Chem Inc. Pleasanton 
 -------------------------------------------------------
 A restricted SCF calculation will be
 performed using DIIS
 SCF converges when DIIS error is below 1.0e-08
 ---------------------------------------
  Cycle       Energy         DIIS error
 ---------------------------------------
    1    -692.4587534000      3.28e-02  
    2    -689.6334209523      2.36e-03  
    3    -689.7017059174      1.06e-03  
    4    -689.7119932253      4.66e-04  
    5    -689.7147430287      8.64e-05  
    6    -689.7148439401      2.60e-05  
    7    -689.7148601359      9.40e-06  
    8    -689.7148628814      3.99e-06  
    9    -689.7148634865      1.55e-06  
   10    -689.7148635789      7.25e-07  
   11    -689.7148636141      3.07e-07  
   12    -689.7148636188      7.39e-08  
   13    -689.7148636191      1.86e-08  
   14    -689.7148636193      4.32e-09  Convergence criterion met
 ---------------------------------------
 SCF time:   CPU 448.04s  wall 57.00s 
 SCF   energy in the final basis set =     -689.7148636193
 Total energy in the final basis set =     -689.7148636193


 ------------------------------------------------------------------------------

   CCMAN2: suite of methods based on coupled cluster
           and equation of motion theories.

   Components:
   * libvmm-1.3-trunk
     by Evgeny Epifanovsky, Ilya Kaliman.
   * libtensor-2.5-trunk
     by Evgeny Epifanovsky, Michael Wormit, Dmitry Zuev, Sam Manzer, 
        Ilya Kaliman.
   * libcc-2.5-trunk
     by Evgeny Epifanovsky, Arik Landau, Tomasz Kus, Kirill Khistyaev, 
        Dmitry Zuev, Prashant Manohar, Xintian Feng, Anna Krylov, 
        Matthew Goldey, Alec White, Thomas Jagau, Kaushik Nanda, 
        Anastasia Gunina, Alexander Kunitsa, Joonho Lee.

   CCMAN original authors:
   Anna I. Krylov, C. David Sherrill, Steven R. Gwaltney,
   Edward F. C. Byrd (2000)
   Sergey V. Levchenko, Lyudmila V. Slipchenko, Tao Wang,
   Ana-Maria C. Cristian (2003)
   Piotr A. Pieniazek, C. Melania Oana, Evgeny Epifanovsky (2007)
   Prashant Manohar (2009)

 ------------------------------------------------------------------------------


 Allocating and initializing 80000MB of RAM...
 Calculation will run on 8 cores.


 Alpha MOs, Restricted
 -- Occupied --                  
-104.84  -11.30  -11.25  -11.25  -11.25  -11.25  -11.24  -10.56
  1 A1    2 A1    3 A1    1 B1    4 A1    2 B1    5 A1    6 A1                 
 -8.030  -8.028  -8.028  -1.191  -1.120  -1.032  -0.996  -0.846
  7 A1    3 B1    1 B2    8 A1    9 A1    4 B1   10 A1    5 B1                 
 -0.820  -0.712  -0.648  -0.647  -0.603  -0.589  -0.545  -0.517
 11 A1   12 A1   13 A1    6 B1    7 B1   14 A1    2 B2    8 B1                 
 -0.511  -0.470  -0.454  -0.352  -0.335
 15 A1    3 B2    9 B1    1 A2    4 B2                                         
 -- Virtual --                   
  0.114   0.115   0.139   0.165   0.174   0.203   0.206   0.216
  2 A2    5 B2   16 A1   10 B1   17 A1   18 A1   11 B1   19 A1                 
  0.311   0.313   0.346   0.379   0.397   0.400   0.421   0.434
 20 A1    6 B2   12 B1   13 B1   21 A1   22 A1    7 B2   23 A1                 
  0.438   0.460   0.468   0.490   0.499   0.504   0.518   0.526
 14 B1    3 A2    8 B2   15 B1   24 A1   25 A1   16 B1    9 B2                 
  0.551   0.553   0.574   0.576   0.580   0.589   0.592   0.598
  4 A2   26 A1   27 A1   10 B2   17 B1   18 B1   11 B2   28 A1                 
  0.625   0.640   0.658   0.660   0.672   0.691   0.698   0.726
 29 A1   19 B1   30 A1    5 A2   12 B2   31 A1   20 B1   21 B1                 
  0.731   0.786   0.813   0.822   0.846   0.848   0.861   0.883
 32 A1   13 B2   22 B1   33 A1    6 A2    7 A2   34 A1   23 B1                 
  0.920   0.931   0.957   0.961   0.969   1.006   1.021   1.026
 14 B2   24 B1    8 A2   35 A1   36 A1   37 A1   25 B1   26 B1                 
  1.073   1.075   1.095   1.103   1.172   1.203   1.206   1.228
 15 B2   38 A1   39 A1   27 B1   16 B2   17 B2    9 A2   40 A1                 
  1.253   1.265   1.273   1.285   1.323   1.347   1.373   1.395
 28 B1   41 A1   18 B2   10 A2   42 A1   43 A1   29 B1   44 A1                 
  1.408   1.482   1.490   1.491   1.496   1.500   1.530   1.554
 30 B1   19 B2   31 B1   45 A1   32 B1   11 A2   33 B1   46 A1                 
  1.558   1.578   1.579   1.600   1.614   1.654   1.702   1.736
 20 B2   34 B1   12 A2   47 A1   35 B1   48 A1   49 A1   36 B1                 
  1.744   1.746   1.798   1.932   1.997   2.108   2.131   2.188
 50 A1   21 B2   13 A2   51 A1   37 B1   52 A1   38 B1   53 A1                 
  2.241   2.245   2.253   2.272   2.302   2.318   2.361   2.362
 39 B1   22 B2   14 A2   54 A1   55 A1   23 B2   40 B1   56 A1                 
  2.376   2.412   2.428   2.431   2.436   2.444   2.456   2.470
 15 A2   24 B2   25 B2   41 B1   57 A1   42 B1   16 A2   58 A1                 
  2.510   2.552   2.571   2.580   2.624   2.639   2.659   2.690
 26 B2   17 A2   43 B1   27 B2   59 A1   44 B1   28 B2   60 A1                 
  2.695   2.701   2.726   2.761   2.775   2.827   2.829   2.843
 18 A2   61 A1   45 B1   62 A1   46 B1   63 A1   29 B2   47 B1                 
  2.859   2.867   2.913   2.950   2.950   2.995   3.020   3.029
 30 B2   64 A1   48 B1   19 A2   31 B2   32 B2   33 B2   49 B1                 
  3.034   3.045   3.099   3.106   3.128   3.140   3.201   3.215
 65 A1   20 A2   21 A2   66 A1   67 A1   50 B1   51 B1   34 B2                 
  3.224   3.234   3.252   3.258   3.314   3.320   3.350   3.367
 22 A2   68 A1   35 B2   36 B2   52 B1   69 A1   53 B1   23 A2                 
  3.371   3.374   3.381   3.399   3.414   3.427   3.428   3.452
 70 A1   54 B1   71 A1   72 A1   73 A1   24 A2   55 B1   74 A1                 
  3.457   3.473   3.517   3.550   3.572   3.603   3.638   3.643
 25 A2   37 B2   56 B1   38 B2   57 B1   75 A1   26 A2   76 A1                 
  3.647   3.669   3.671   3.679   3.685   3.724   3.744   3.753
 39 B2   58 B1   40 B2   27 A2   59 B1   41 B2   60 B1   77 A1                 
  3.788   3.832   3.901   3.955   3.969   3.978   3.996   4.071
 28 A2   78 A1   79 A1   80 A1   61 B1   29 A2   42 B2   30 A2                 
  4.075   4.094   4.117   4.123   4.131   4.135   4.143   4.148
 81 A1   43 B2   62 B1   63 B1   82 A1   44 B2   31 A2   83 A1                 
  4.175   4.181   4.194   4.244   4.249   4.352   4.372   4.375
 64 B1   45 B2   32 A2   84 A1   65 B1   85 A1   66 B1   46 B2                 
  4.406   4.442   4.450   4.490   4.502   4.506   4.522   4.538
 33 A2   86 A1   67 B1   47 B2   68 B1   87 A1   88 A1   69 B1                 
  4.603   4.612   4.650   4.658   4.671   4.672   4.694   4.700
 89 A1   34 A2   35 A2   48 B2   90 A1   70 B1   49 B2   71 B1                 
  4.723   4.809   4.883   4.996   5.026   5.048   5.055   5.079
 91 A1   92 A1   72 B1   93 A1   50 B2   94 A1   51 B2   73 B1                 
  5.095   5.105   5.134   5.219   5.242   5.308   5.336   5.367
 74 B1   36 A2   37 A2   95 A1   52 B2   75 B1   96 A1   38 A2                 
  5.375   5.422   5.489   5.517   5.592   5.726   5.881   5.909
 76 B1   97 A1   98 A1   77 B1   78 B1   53 B2   99 A1   79 B1                 
  5.922   6.078   6.272   6.303   6.420   6.428   6.487   6.767
100 A1  101 A1   80 B1   81 B1   82 B1  102 A1  103 A1  104 A1                 
  7.183   8.993  12.531  13.184  13.467  13.757  16.090
 83 B1  105 A1  106 A1   84 B1  107 A1   85 B1  108 A1                         

 Beta MOs, Restricted
 -- Occupied --                  
-104.84  -11.30  -11.25  -11.25  -11.25  -11.25  -11.24  -10.56
  1 A1    2 A1    3 A1    1 B1    4 A1    2 B1    5 A1    6 A1                 
 -8.030  -8.028  -8.028  -1.191  -1.120  -1.032  -0.996  -0.846
  7 A1    3 B1    1 B2    8 A1    9 A1    4 B1   10 A1    5 B1                 
 -0.820  -0.712  -0.648  -0.647  -0.603  -0.589  -0.545  -0.517
 11 A1   12 A1   13 A1    6 B1    7 B1   14 A1    2 B2    8 B1                 
 -0.511  -0.470  -0.454  -0.352  -0.335
 15 A1    3 B2    9 B1    1 A2    4 B2                                         
 -- Virtual --                   
  0.114   0.115   0.139   0.165   0.174   0.203   0.206   0.216
  2 A2    5 B2   16 A1   10 B1   17 A1   18 A1   11 B1   19 A1                 
  0.311   0.313   0.346   0.379   0.397   0.400   0.421   0.434
 20 A1    6 B2   12 B1   13 B1   21 A1   22 A1    7 B2   23 A1                 
  0.438   0.460   0.468   0.490   0.499   0.504   0.518   0.526
 14 B1    3 A2    8 B2   15 B1   24 A1   25 A1   16 B1    9 B2                 
  0.551   0.553   0.574   0.576   0.580   0.589   0.592   0.598
  4 A2   26 A1   27 A1   10 B2   17 B1   18 B1   11 B2   28 A1                 
  0.625   0.640   0.658   0.660   0.672   0.691   0.698   0.726
 29 A1   19 B1   30 A1    5 A2   12 B2   31 A1   20 B1   21 B1                 
  0.731   0.786   0.813   0.822   0.846   0.848   0.861   0.883
 32 A1   13 B2   22 B1   33 A1    6 A2    7 A2   34 A1   23 B1                 
  0.920   0.931   0.957   0.961   0.969   1.006   1.021   1.026
 14 B2   24 B1    8 A2   35 A1   36 A1   37 A1   25 B1   26 B1                 
  1.073   1.075   1.095   1.103   1.172   1.203   1.206   1.228
 15 B2   38 A1   39 A1   27 B1   16 B2   17 B2    9 A2   40 A1                 
  1.253   1.265   1.273   1.285   1.323   1.347   1.373   1.395
 28 B1   41 A1   18 B2   10 A2   42 A1   43 A1   29 B1   44 A1                 
  1.408   1.482   1.490   1.491   1.496   1.500   1.530   1.554
 30 B1   19 B2   31 B1   45 A1   32 B1   11 A2   33 B1   46 A1                 
  1.558   1.578   1.579   1.600   1.614   1.654   1.702   1.736
 20 B2   34 B1   12 A2   47 A1   35 B1   48 A1   49 A1   36 B1                 
  1.744   1.746   1.798   1.932   1.997   2.108   2.131   2.188
 50 A1   21 B2   13 A2   51 A1   37 B1   52 A1   38 B1   53 A1                 
  2.241   2.245   2.253   2.272   2.302   2.318   2.361   2.362
 39 B1   22 B2   14 A2   54 A1   55 A1   23 B2   40 B1   56 A1                 
  2.376   2.412   2.428   2.431   2.436   2.444   2.456   2.470
 15 A2   24 B2   25 B2   41 B1   57 A1   42 B1   16 A2   58 A1                 
  2.510   2.552   2.571   2.580   2.624   2.639   2.659   2.690
 26 B2   17 A2   43 B1   27 B2   59 A1   44 B1   28 B2   60 A1                 
  2.695   2.701   2.726   2.761   2.775   2.827   2.829   2.843
 18 A2   61 A1   45 B1   62 A1   46 B1   63 A1   29 B2   47 B1                 
  2.859   2.867   2.913   2.950   2.950   2.995   3.020   3.029
 30 B2   64 A1   48 B1   19 A2   31 B2   32 B2   33 B2   49 B1                 
  3.034   3.045   3.099   3.106   3.128   3.140   3.201   3.215
 65 A1   20 A2   21 A2   66 A1   67 A1   50 B1   51 B1   34 B2                 
  3.224   3.234   3.252   3.258   3.314   3.320   3.350   3.367
 22 A2   68 A1   35 B2   36 B2   52 B1   69 A1   53 B1   23 A2                 
  3.371   3.374   3.381   3.399   3.414   3.427   3.428   3.452
 70 A1   54 B1   71 A1   72 A1   73 A1   24 A2   55 B1   74 A1                 
  3.457   3.473   3.517   3.550   3.572   3.603   3.638   3.643
 25 A2   37 B2   56 B1   38 B2   57 B1   75 A1   26 A2   76 A1                 
  3.647   3.669   3.671   3.679   3.685   3.724   3.744   3.753
 39 B2   58 B1   40 B2   27 A2   59 B1   41 B2   60 B1   77 A1                 
  3.788   3.832   3.901   3.955   3.969   3.978   3.996   4.071
 28 A2   78 A1   79 A1   80 A1   61 B1   29 A2   42 B2   30 A2                 
  4.075   4.094   4.117   4.123   4.131   4.135   4.143   4.148
 81 A1   43 B2   62 B1   63 B1   82 A1   44 B2   31 A2   83 A1                 
  4.175   4.181   4.194   4.244   4.249   4.352   4.372   4.375
 64 B1   45 B2   32 A2   84 A1   65 B1   85 A1   66 B1   46 B2                 
  4.406   4.442   4.450   4.490   4.502   4.506   4.522   4.538
 33 A2   86 A1   67 B1   47 B2   68 B1   87 A1   88 A1   69 B1                 
  4.603   4.612   4.650   4.658   4.671   4.672   4.694   4.700
 89 A1   34 A2   35 A2   48 B2   90 A1   70 B1   49 B2   71 B1                 
  4.723   4.809   4.883   4.996   5.026   5.048   5.055   5.079
 91 A1   92 A1   72 B1   93 A1   50 B2   94 A1   51 B2   73 B1                 
  5.095   5.105   5.134   5.219   5.242   5.308   5.336   5.367
 74 B1   36 A2   37 A2   95 A1   52 B2   75 B1   96 A1   38 A2                 
  5.375   5.422   5.489   5.517   5.592   5.726   5.881   5.909
 76 B1   97 A1   98 A1   77 B1   78 B1   53 B2   99 A1   79 B1                 
  5.922   6.078   6.272   6.303   6.420   6.428   6.487   6.767
100 A1  101 A1   80 B1   81 B1   82 B1  102 A1  103 A1  104 A1                 
  7.183   8.993  12.531  13.184  13.467  13.757  16.090
 83 B1  105 A1  106 A1   84 B1  107 A1   85 B1  108 A1                         

 Occupation and symmetry of molecular orbitals

 Point group: C2v (4 irreducible representations).

                           A1   A2   B1   B2    All 
 ----------------------------------------------------
 All molecular orbitals:
  - Alpha                  108  38   85   53    284 
  - Beta                   108  38   85   53    284 
 ----------------------------------------------------
 Alpha orbitals:
  - Frozen occupied        7    0    3    1     11  
  - Active occupied        8    1    6    3     18  
  - Active virtual         93   37   76   49    255 
  - Frozen virtual         0    0    0    0     0   
 ----------------------------------------------------
 Beta orbitals:
  - Frozen occupied        7    0    3    1     11  
  - Active occupied        8    1    6    3     18  
  - Active virtual         93   37   76   49    255 
  - Frozen virtual         0    0    0    0     0   
 ----------------------------------------------------

 Import integrals:   CPU 0.00 s  wall 0.00 s

 Import integrals:   CPU 859.10 s  wall 120.09 s

 MP2 amplitudes:   CPU 6.74 s  wall 5.78 s

Running a single precision version
I will use integrals, stored in single precision format
           CCSD T amplitudes will be solved using DIIS.

           Start     Size      MaxIter   EConv     TConv     
           3         7         100       1.00e-06  1.00e-04  
 ------------------------------------------------------------------------------
           Energy (a.u.)   Ediff      Tdiff       Comment
 ------------------------------------------------------------------------------
          -690.84798082                           
     1    -690.84259518   5.39e-03   1.04e+00     
     2    -690.87597278   3.34e-02   1.43e-01     
     3    -690.87495922   1.01e-03   4.97e-02     
     4    -690.87781477   2.86e-03   1.42e-02     Switched to DIIS steps.
     5    -690.87871981   9.05e-04   1.10e-02     
     6    -690.87874909   2.93e-05   1.99e-03     
     7    -690.87873386   1.52e-05   1.01e-03     
     8    -690.87873252   1.34e-06   1.96e-04     
     9    -690.87873240   1.18e-07   7.26e-05     
 ------------------------------------------------------------------------------
          -690.87873240                           CCSD T converged.

End of single precision
No iterations in double precision will be done
 SCF energy                 = -689.71486362
 MP2 energy                 = -690.84798022
 CCSD correlation energy     =   -1.16386878
 CCSD total energy           = -690.87873240

 CCSD  T1^2 = 0.0074  T2^2 = 0.4259  Leading amplitudes:

 Amplitude    Orbitals with energies
  0.0205       1 (A2) A                  ->    3 (A2) A                   
              -0.3516                          0.4603                     
  0.0205       1 (A2) B                  ->    3 (A2) B                   
              -0.3516                          0.4603                     
 -0.0173       4 (B2) A                  ->    8 (B2) A                   
              -0.3355                          0.4678                     
 -0.0173       4 (B2) B                  ->    8 (B2) B                   
              -0.3355                          0.4678                     

 Amplitude    Orbitals with energies
 -0.0802       1 (A2) A      1 (A2) B    ->    2 (A2) A      2 (A2) B     
              -0.3516       -0.3516            0.1138        0.1138       
  0.0802       1 (A2) A      1 (A2) B    ->    2 (A2) B      2 (A2) A     
              -0.3516       -0.3516            0.1138        0.1138       
  0.0802       1 (A2) B      1 (A2) A    ->    2 (A2) A      2 (A2) B     
              -0.3516       -0.3516            0.1138        0.1138       
 -0.0802       1 (A2) B      1 (A2) A    ->    2 (A2) B      2 (A2) A     
              -0.3516       -0.3516            0.1138        0.1138       

 Computing CCSD intemediates for later calculations in single precision
 Finished.

 CCSD calculation:   CPU 746.35 s  wall 117.48 s

        Solving for EOMIP-CCSD A1 transitions.

Running a single precision version
      EOMIP-CCSD/MP2 right amplitudes will be solved using Davidson.
      Amplitudes will be solved using standard  algorithm
      Roots     MaxVec    MaxIter   Precond   Conv      Thresh    Shift    
      2         60        60        1         1.00e-05  1.00e-05  0.00e+00  
 ------------------------------------------------------------------------------
      Iter ConvRoots NVecs ResNorm Current eigenvalues (eV)
 ------------------------------------------------------------------------------
      0    0      2     1.38e-01   15.7677   17.8360   
      1    0      4     4.19e-02   13.2832   15.3393   
      2    0      6     1.15e-03   12.6921   14.7058   
      3    0      8     1.78e-04   12.6653   14.6664   
      4    0      10    3.56e-05   12.6638   14.6619   
      5    1      12    7.81e-06   12.6630*  14.6592   
      6    1      13    6.05e-06   12.6630*  14.6581   
      7    2      14    1.45e-06   12.6630*  14.6582*  

     Davidson procedure converged

 EOMIP transition 1/A1
 Total energy = -690.41337587 a.u.  Excitation energy = 12.6630 eV.
 R1^2 = 0.9267  R2^2 = 0.0733  Res^2 = 7.48e-07
 Conv-d = yes

 Amplitude    Transitions between orbitals
 -0.9596       15 (A1) A                 ->    infty        
  0.0628       14 (A1) A                 ->    infty        
  0.0364       11 (A1) A                 ->    infty        
 -0.0169       13 (A1) A                 ->    infty        

              Summary of significant orbitals:

               Number  Type             Irrep      Energy
               17      Occ  Alpha      11 (A1)     -0.8196
               19      Occ  Alpha      13 (A1)     -0.6482
               22      Occ  Alpha      14 (A1)     -0.5895
               25      Occ  Alpha      15 (A1)     -0.5115


 EOMIP transition 2/A1
 Total energy = -690.34005261 a.u.  Excitation energy = 14.6582 eV.
 R1^2 = 0.9174  R2^2 = 0.0826  Res^2 = 2.16e-06
 Conv-d = yes

 Amplitude    Transitions between orbitals
 -0.9516       14 (A1) A                 ->    infty        
 -0.0762       13 (A1) A                 ->    infty        
 -0.0633       15 (A1) A                 ->    infty        
 -0.0306       12 (A1) A                 ->    infty        

              Summary of significant orbitals:

               Number  Type             Irrep      Energy
               18      Occ  Alpha      12 (A1)     -0.7115
               19      Occ  Alpha      13 (A1)     -0.6482
               22      Occ  Alpha      14 (A1)     -0.5895
               25      Occ  Alpha      15 (A1)     -0.5115


        Solving for EOMIP-CCSD A2 transitions.

Running a single precision version
      EOMIP-CCSD/MP2 right amplitudes will be solved using Davidson.
      Amplitudes will be solved using standard  algorithm
      Roots     MaxVec    MaxIter   Precond   Conv      Thresh    Shift    
      1         60        60        1         1.00e-05  1.00e-05  0.00e+00  
 ------------------------------------------------------------------------------
      Iter ConvRoots NVecs ResNorm Current eigenvalues (eV)
 ------------------------------------------------------------------------------
      0    0      1     9.60e-02   11.8647   
      1    0      2     3.01e-02   10.1398   
      2    0      3     7.84e-04   9.6702   
      3    0      4     4.51e-05   9.6498   
      4    1      5     1.89e-06   9.6485*  

     Davidson procedure converged

 EOMIP transition 1/A2
 Total energy = -690.52415638 a.u.  Excitation energy = 9.6485 eV.
 R1^2 = 0.9391  R2^2 = 0.0609  Res^2 = 1.89e-06
 Conv-d = yes

 Amplitude    Transitions between orbitals
 -0.9691       1 (A2) A                  ->    infty        

              Summary of significant orbitals:

               Number  Type             Irrep      Energy
               28      Occ  Alpha       1 (A2)     -0.3516


        Solving for EOMIP-CCSD B1 transitions.

Running a single precision version
      EOMIP-CCSD/MP2 right amplitudes will be solved using Davidson.
      Amplitudes will be solved using standard  algorithm
      Roots     MaxVec    MaxIter   Precond   Conv      Thresh    Shift    
      3         60        60        1         1.00e-05  1.00e-05  0.00e+00  
 ------------------------------------------------------------------------------
      Iter ConvRoots NVecs ResNorm Current eigenvalues (eV)
 ------------------------------------------------------------------------------
      0    0      3     1.29e-01   14.0911   15.7913   18.0217   
      1    0      6     4.00e-02   11.8934   13.3437   15.5402   
      2    0      9     1.04e-03   11.4248   12.7427   14.8489   
      3    0      12    1.51e-04   11.4047   12.7164   14.8068   
      4    2      15    1.25e-05   11.4031*  12.7148*  14.8031   
      5    3      16    6.65e-06   11.4031*  12.7148*  14.8017*  

     Davidson procedure converged

 EOMIP transition 1/B1
 Total energy = -690.45967552 a.u.  Excitation energy = 11.4031 eV.
 R1^2 = 0.9303  R2^2 = 0.0697  Res^2 = 7.77e-06
 Conv-d = yes

 Amplitude    Transitions between orbitals
 -0.9619       9 (B1) A                  ->    infty        
  0.0627       8 (B1) A                  ->    infty        
 -0.0282       6 (B1) A                  ->    infty        
  0.0183       5 (B1) A                  ->    infty        

              Summary of significant orbitals:

               Number  Type             Irrep      Energy
               16      Occ  Alpha       5 (B1)     -0.8460
               20      Occ  Alpha       6 (B1)     -0.6473
               24      Occ  Alpha       8 (B1)     -0.5165
               27      Occ  Alpha       9 (B1)     -0.4538


 EOMIP transition 2/B1
 Total energy = -690.41147272 a.u.  Excitation energy = 12.7148 eV.
 R1^2 = 0.9258  R2^2 = 0.0742  Res^2 = 9.92e-06
 Conv-d = yes

 Amplitude    Transitions between orbitals
  0.9595       8 (B1) A                  ->    infty        
  0.0634       9 (B1) A                  ->    infty        
  0.0297       5 (B1) A                  ->    infty        
  0.0139       6 (B1) A                  ->    infty        

              Summary of significant orbitals:

               Number  Type             Irrep      Energy
               16      Occ  Alpha       5 (B1)     -0.8460
               20      Occ  Alpha       6 (B1)     -0.6473
               24      Occ  Alpha       8 (B1)     -0.5165
               27      Occ  Alpha       9 (B1)     -0.4538


 EOMIP transition 3/B1
 Total energy = -690.33477872 a.u.  Excitation energy = 14.8017 eV.
 R1^2 = 0.9146  R2^2 = 0.0854  Res^2 = 2.27e-06
 Conv-d = yes

 Amplitude    Transitions between orbitals
  0.9557       7 (B1) A                  ->    infty        
 -0.0331       4 (B1) A                  ->    infty        
  0.0097       8 (B1) A                  ->    infty        
  0.0083       6 (B1) A                  ->    infty        

              Summary of significant orbitals:

               Number  Type             Irrep      Energy
               14      Occ  Alpha       4 (B1)     -1.0316
               20      Occ  Alpha       6 (B1)     -0.6473
               21      Occ  Alpha       7 (B1)     -0.6032
               24      Occ  Alpha       8 (B1)     -0.5165


        Solving for EOMIP-CCSD B2 transitions.

Running a single precision version
      EOMIP-CCSD/MP2 right amplitudes will be solved using Davidson.
      Amplitudes will be solved using standard  algorithm
      Roots     MaxVec    MaxIter   Precond   Conv      Thresh    Shift    
      3         60        60        1         1.00e-05  1.00e-05  0.00e+00  
 ------------------------------------------------------------------------------
      Iter ConvRoots NVecs ResNorm Current eigenvalues (eV)
 ------------------------------------------------------------------------------
      0    0      3     1.05e-01   11.4157   14.5794   16.5673   
      1    0      6     3.30e-02   9.5869   12.5461   14.3831   
      2    0      9     1.11e-03   9.1414   12.0005   13.6562   
      3    0      12    7.21e-05   9.1250   11.9675   13.6007   
      4    3      15    4.36e-06   9.1238*  11.9658*  13.5973*  

     Davidson procedure converged

 EOMIP transition 1/B2
 Total energy = -690.54344044 a.u.  Excitation energy = 9.1238 eV.
 R1^2 = 0.9398  R2^2 = 0.0602  Res^2 = 2.12e-06
 Conv-d = yes

 Amplitude    Transitions between orbitals
 -0.9675       4 (B2) A                  ->    infty        
 -0.0610       3 (B2) A                  ->    infty        
  0.0062       2 (B2) A                  ->    infty        

              Summary of significant orbitals:

               Number  Type             Irrep      Energy
               23      Occ  Alpha       2 (B2)     -0.5452
               26      Occ  Alpha       3 (B2)     -0.4695
               29      Occ  Alpha       4 (B2)     -0.3355


 EOMIP transition 2/B2
 Total energy = -690.43899780 a.u.  Excitation energy = 11.9658 eV.
 R1^2 = 0.9203  R2^2 = 0.0797  Res^2 = 3.55e-06
 Conv-d = yes

 Amplitude    Transitions between orbitals
  0.9574       3 (B2) A                  ->    infty        
 -0.0592       4 (B2) A                  ->    infty        
  0.0156       2 (B2) A                  ->    infty        

              Summary of significant orbitals:

               Number  Type             Irrep      Energy
               23      Occ  Alpha       2 (B2)     -0.5452
               26      Occ  Alpha       3 (B2)     -0.4695
               29      Occ  Alpha       4 (B2)     -0.3355


 EOMIP transition 3/B2
 Total energy = -690.37904200 a.u.  Excitation energy = 13.5973 eV.
 R1^2 = 0.9009  R2^2 = 0.0991  Res^2 = 7.42e-06
 Conv-d = yes

 Amplitude    Transitions between orbitals
  0.9486       2 (B2) A                  ->    infty        
 -0.0326       3 (B2) A                  ->    infty        
  0.0054       4 (B2) A                  ->    infty        

              Summary of significant orbitals:

               Number  Type             Irrep      Energy
               23      Occ  Alpha       2 (B2)     -0.5452
               26      Occ  Alpha       3 (B2)     -0.4695
               29      Occ  Alpha       4 (B2)     -0.3355


 EOMIP-CCSD calculation:   CPU 56.15 s  wall 12.84 s

 Total ccman2 time:   CPU 1700.99 s  wall 263.37 s


 --------------------------------------------------------------
             Orbital Energies (a.u.) and Symmetries
 --------------------------------------------------------------

 Alpha MOs, Restricted
 -- Occupied --                  
-104.84  -11.30  -11.25  -11.25  -11.25  -11.25  -11.24  -10.56
  1 A1    2 A1    3 A1    1 B1    4 A1    2 B1    5 A1    6 A1                 
 -8.030  -8.028  -8.028  -1.191  -1.120  -1.032  -0.996  -0.846
  7 A1    3 B1    1 B2    8 A1    9 A1    4 B1   10 A1    5 B1                 
 -0.820  -0.712  -0.648  -0.647  -0.603  -0.589  -0.545  -0.517
 11 A1   12 A1   13 A1    6 B1    7 B1   14 A1    2 B2    8 B1                 
 -0.511  -0.470  -0.454  -0.352  -0.335
 15 A1    3 B2    9 B1    1 A2    4 B2                                         
 -- Virtual --                   
  0.114   0.115   0.139   0.165   0.174   0.203   0.206   0.216
  2 A2    5 B2   16 A1   10 B1   17 A1   18 A1   11 B1   19 A1                 
  0.311   0.313   0.346   0.379   0.397   0.400   0.421   0.434
 20 A1    6 B2   12 B1   13 B1   21 A1   22 A1    7 B2   23 A1                 
  0.438   0.460   0.468   0.490   0.499   0.504   0.518   0.526
 14 B1    3 A2    8 B2   15 B1   24 A1   25 A1   16 B1    9 B2                 
  0.551   0.553   0.574   0.576   0.580   0.589   0.592   0.598
  4 A2   26 A1   27 A1   10 B2   17 B1   18 B1   11 B2   28 A1                 
  0.625   0.640   0.658   0.660   0.672   0.691   0.698   0.726
 29 A1   19 B1   30 A1    5 A2   12 B2   31 A1   20 B1   21 B1                 
  0.731   0.786   0.813   0.822   0.846   0.848   0.861   0.883
 32 A1   13 B2   22 B1   33 A1    6 A2    7 A2   34 A1   23 B1                 
  0.920   0.931   0.957   0.961   0.969   1.006   1.021   1.026
 14 B2   24 B1    8 A2   35 A1   36 A1   37 A1   25 B1   26 B1                 
  1.073   1.075   1.095   1.103   1.172   1.203   1.206   1.228
 15 B2   38 A1   39 A1   27 B1   16 B2   17 B2    9 A2   40 A1                 
  1.253   1.265   1.273   1.285   1.323   1.347   1.373   1.395
 28 B1   41 A1   18 B2   10 A2   42 A1   43 A1   29 B1   44 A1                 
  1.408   1.482   1.490   1.491   1.496   1.500   1.530   1.554
 30 B1   19 B2   31 B1   45 A1   32 B1   11 A2   33 B1   46 A1                 
  1.558   1.578   1.579   1.600   1.614   1.654   1.702   1.736
 20 B2   34 B1   12 A2   47 A1   35 B1   48 A1   49 A1   36 B1                 
  1.744   1.746   1.798   1.932   1.997   2.108   2.131   2.188
 50 A1   21 B2   13 A2   51 A1   37 B1   52 A1   38 B1   53 A1                 
  2.241   2.245   2.253   2.272   2.302   2.318   2.361   2.362
 39 B1   22 B2   14 A2   54 A1   55 A1   23 B2   40 B1   56 A1                 
  2.376   2.412   2.428   2.431   2.436   2.444   2.456   2.470
 15 A2   24 B2   25 B2   41 B1   57 A1   42 B1   16 A2   58 A1                 
  2.510   2.552   2.571   2.580   2.624   2.639   2.659   2.690
 26 B2   17 A2   43 B1   27 B2   59 A1   44 B1   28 B2   60 A1                 
  2.695   2.701   2.726   2.761   2.775   2.827   2.829   2.843
 18 A2   61 A1   45 B1   62 A1   46 B1   63 A1   29 B2   47 B1                 
  2.859   2.867   2.913   2.950   2.950   2.995   3.020   3.029
 30 B2   64 A1   48 B1   19 A2   31 B2   32 B2   33 B2   49 B1                 
  3.034   3.045   3.099   3.106   3.128   3.140   3.201   3.215
 65 A1   20 A2   21 A2   66 A1   67 A1   50 B1   51 B1   34 B2                 
  3.224   3.234   3.252   3.258   3.314   3.320   3.350   3.367
 22 A2   68 A1   35 B2   36 B2   52 B1   69 A1   53 B1   23 A2                 
  3.371   3.374   3.381   3.399   3.414   3.427   3.428   3.452
 70 A1   54 B1   71 A1   72 A1   73 A1   24 A2   55 B1   74 A1                 
  3.457   3.473   3.517   3.550   3.572   3.603   3.638   3.643
 25 A2   37 B2   56 B1   38 B2   57 B1   75 A1   26 A2   76 A1                 
  3.647   3.669   3.671   3.679   3.685   3.724   3.744   3.753
 39 B2   58 B1   40 B2   27 A2   59 B1   41 B2   60 B1   77 A1                 
  3.788   3.832   3.901   3.955   3.969   3.978   3.996   4.071
 28 A2   78 A1   79 A1   80 A1   61 B1   29 A2   42 B2   30 A2                 
  4.075   4.094   4.117   4.123   4.131   4.135   4.143   4.148
 81 A1   43 B2   62 B1   63 B1   82 A1   44 B2   31 A2   83 A1                 
  4.175   4.181   4.194   4.244   4.249   4.352   4.372   4.375
 64 B1   45 B2   32 A2   84 A1   65 B1   85 A1   66 B1   46 B2                 
  4.406   4.442   4.450   4.490   4.502   4.506   4.522   4.538
 33 A2   86 A1   67 B1   47 B2   68 B1   87 A1   88 A1   69 B1                 
  4.603   4.612   4.650   4.658   4.671   4.672   4.694   4.700
 89 A1   34 A2   35 A2   48 B2   90 A1   70 B1   49 B2   71 B1                 
  4.723   4.809   4.883   4.996   5.026   5.048   5.055   5.079
 91 A1   92 A1   72 B1   93 A1   50 B2   94 A1   51 B2   73 B1                 
  5.095   5.105   5.134   5.219   5.242   5.308   5.336   5.367
 74 B1   36 A2   37 A2   95 A1   52 B2   75 B1   96 A1   38 A2                 
  5.375   5.422   5.489   5.517   5.592   5.726   5.881   5.909
 76 B1   97 A1   98 A1   77 B1   78 B1   53 B2   99 A1   79 B1                 
  5.922   6.078   6.272   6.303   6.420   6.428   6.487   6.767
100 A1  101 A1   80 B1   81 B1   82 B1  102 A1  103 A1  104 A1                 
  7.183   8.993  12.531  13.184  13.467  13.757  16.090
 83 B1  105 A1  106 A1   84 B1  107 A1   85 B1  108 A1                         

 Beta MOs, Restricted
 -- Occupied --                  
-104.84  -11.30  -11.25  -11.25  -11.25  -11.25  -11.24  -10.56
  1 A1    2 A1    3 A1    1 B1    4 A1    2 B1    5 A1    6 A1                 
 -8.030  -8.028  -8.028  -1.191  -1.120  -1.032  -0.996  -0.846
  7 A1    3 B1    1 B2    8 A1    9 A1    4 B1   10 A1    5 B1                 
 -0.820  -0.712  -0.648  -0.647  -0.603  -0.589  -0.545  -0.517
 11 A1   12 A1   13 A1    6 B1    7 B1   14 A1    2 B2    8 B1                 
 -0.511  -0.470  -0.454  -0.352  -0.335
 15 A1    3 B2    9 B1    1 A2    4 B2                                         
 -- Virtual --                   
  0.114   0.115   0.139   0.165   0.174   0.203   0.206   0.216
  2 A2    5 B2   16 A1   10 B1   17 A1   18 A1   11 B1   19 A1                 
  0.311   0.313   0.346   0.379   0.397   0.400   0.421   0.434
 20 A1    6 B2   12 B1   13 B1   21 A1   22 A1    7 B2   23 A1                 
  0.438   0.460   0.468   0.490   0.499   0.504   0.518   0.526
 14 B1    3 A2    8 B2   15 B1   24 A1   25 A1   16 B1    9 B2                 
  0.551   0.553   0.574   0.576   0.580   0.589   0.592   0.598
  4 A2   26 A1   27 A1   10 B2   17 B1   18 B1   11 B2   28 A1                 
  0.625   0.640   0.658   0.660   0.672   0.691   0.698   0.726
 29 A1   19 B1   30 A1    5 A2   12 B2   31 A1   20 B1   21 B1                 
  0.731   0.786   0.813   0.822   0.846   0.848   0.861   0.883
 32 A1   13 B2   22 B1   33 A1    6 A2    7 A2   34 A1   23 B1                 
  0.920   0.931   0.957   0.961   0.969   1.006   1.021   1.026
 14 B2   24 B1    8 A2   35 A1   36 A1   37 A1   25 B1   26 B1                 
  1.073   1.075   1.095   1.103   1.172   1.203   1.206   1.228
 15 B2   38 A1   39 A1   27 B1   16 B2   17 B2    9 A2   40 A1                 
  1.253   1.265   1.273   1.285   1.323   1.347   1.373   1.395
 28 B1   41 A1   18 B2   10 A2   42 A1   43 A1   29 B1   44 A1                 
  1.408   1.482   1.490   1.491   1.496   1.500   1.530   1.554
 30 B1   19 B2   31 B1   45 A1   32 B1   11 A2   33 B1   46 A1                 
  1.558   1.578   1.579   1.600   1.614   1.654   1.702   1.736
 20 B2   34 B1   12 A2   47 A1   35 B1   48 A1   49 A1   36 B1                 
  1.744   1.746   1.798   1.932   1.997   2.108   2.131   2.188
 50 A1   21 B2   13 A2   51 A1   37 B1   52 A1   38 B1   53 A1                 
  2.241   2.245   2.253   2.272   2.302   2.318   2.361   2.362
 39 B1   22 B2   14 A2   54 A1   55 A1   23 B2   40 B1   56 A1                 
  2.376   2.412   2.428   2.431   2.436   2.444   2.456   2.470
 15 A2   24 B2   25 B2   41 B1   57 A1   42 B1   16 A2   58 A1                 
  2.510   2.552   2.571   2.580   2.624   2.639   2.659   2.690
 26 B2   17 A2   43 B1   27 B2   59 A1   44 B1   28 B2   60 A1                 
  2.695   2.701   2.726   2.761   2.775   2.827   2.829   2.843
 18 A2   61 A1   45 B1   62 A1   46 B1   63 A1   29 B2   47 B1                 
  2.859   2.867   2.913   2.950   2.950   2.995   3.020   3.029
 30 B2   64 A1   48 B1   19 A2   31 B2   32 B2   33 B2   49 B1                 
  3.034   3.045   3.099   3.106   3.128   3.140   3.201   3.215
 65 A1   20 A2   21 A2   66 A1   67 A1   50 B1   51 B1   34 B2                 
  3.224   3.234   3.252   3.258   3.314   3.320   3.350   3.367
 22 A2   68 A1   35 B2   36 B2   52 B1   69 A1   53 B1   23 A2                 
  3.371   3.374   3.381   3.399   3.414   3.427   3.428   3.452
 70 A1   54 B1   71 A1   72 A1   73 A1   24 A2   55 B1   74 A1                 
  3.457   3.473   3.517   3.550   3.572   3.603   3.638   3.643
 25 A2   37 B2   56 B1   38 B2   57 B1   75 A1   26 A2   76 A1                 
  3.647   3.669   3.671   3.679   3.685   3.724   3.744   3.753
 39 B2   58 B1   40 B2   27 A2   59 B1   41 B2   60 B1   77 A1                 
  3.788   3.832   3.901   3.955   3.969   3.978   3.996   4.071
 28 A2   78 A1   79 A1   80 A1   61 B1   29 A2   42 B2   30 A2                 
  4.075   4.094   4.117   4.123   4.131   4.135   4.143   4.148
 81 A1   43 B2   62 B1   63 B1   82 A1   44 B2   31 A2   83 A1                 
  4.175   4.181   4.194   4.244   4.249   4.352   4.372   4.375
 64 B1   45 B2   32 A2   84 A1   65 B1   85 A1   66 B1   46 B2                 
  4.406   4.442   4.450   4.490   4.502   4.506   4.522   4.538
 33 A2   86 A1   67 B1   47 B2   68 B1   87 A1   88 A1   69 B1                 
  4.603   4.612   4.650   4.658   4.671   4.672   4.694   4.700
 89 A1   34 A2   35 A2   48 B2   90 A1   70 B1   49 B2   71 B1                 
  4.723   4.809   4.883   4.996   5.026   5.048   5.055   5.079
 91 A1   92 A1   72 B1   93 A1   50 B2   94 A1   51 B2   73 B1                 
  5.095   5.105   5.134   5.219   5.242   5.308   5.336   5.367
 74 B1   36 A2   37 A2   95 A1   52 B2   75 B1   96 A1   38 A2                 
  5.375   5.422   5.489   5.517   5.592   5.726   5.881   5.909
 76 B1   97 A1   98 A1   77 B1   78 B1   53 B2   99 A1   79 B1                 
  5.922   6.078   6.272   6.303   6.420   6.428   6.487   6.767
100 A1  101 A1   80 B1   81 B1   82 B1  102 A1  103 A1  104 A1                 
  7.183   8.993  12.531  13.184  13.467  13.757  16.090
 83 B1  105 A1  106 A1   84 B1  107 A1   85 B1  108 A1                         
 --------------------------------------------------------------

          Ground-State Mulliken Net Atomic Charges

     Atom                 Charge (a.u.)
  ----------------------------------------
      1 H                     0.170225
      2 C                    -0.180847
      3 C                    -0.122600
      4 H                     0.158568
      5 C                    -0.168489
      6 H                     0.157736
      7 C                    -0.122600
      8 H                     0.158568
      9 C                    -0.180847
     10 H                     0.170225
     11 C                     0.115551
     12 Cl                   -0.155489
  ----------------------------------------
  Sum of atomic charges =    -0.000000

 -----------------------------------------------------------------
                    Cartesian Multipole Moments
 -----------------------------------------------------------------
    Charge (ESU x 10^10)
                -0.0000
    Dipole Moment (Debye)
         X      -0.0000      Y       0.0000      Z      -1.9212
       Tot       1.9212
    Quadrupole Moments (Debye-Ang)
        XX     -42.2560     XY       0.0000     YY     -52.0023
        XZ       0.0000     YZ       0.0000     ZZ     -46.3457
    Octopole Moments (Debye-Ang^2)
       XXX      -0.0000    XXY      -0.0000    XYY      -0.0000
       YYY       0.0000    XXZ      -1.1543    XYZ      -0.0000
       YYZ       7.3959    XZZ      -0.0000    YZZ       0.0000
       ZZZ      -5.6423
    Hexadecapole Moments (Debye-Ang^3)
      XXXX    -273.5622   XXXY       0.0000   XXYY     -67.6473
      XYYY       0.0000   YYYY     -60.4623   XXXZ       0.0000
      XXYZ       0.0000   XYYZ       0.0000   YYYZ       0.0000
      XXZZ    -179.4963   XYZZ       0.0000   YYZZ    -162.0727
      XZZZ       0.0000   YZZZ       0.0000   ZZZZ    -781.5270
 -----------------------------------------------------------------
Archival summary:
1\1\node20\SP\ProcedureUnspecified\BasisUnspecified\l165\krylov\ThuSep600:18:372018ThuSep600:18:372018\0\\#,ProcedureUnspecified,BasisUnspecified,\\0,1\Cl\C,1,1.73093\C,2,1.39121,1,119.398\H,3,1.08039,2,119.798,1,0,0\C,2,1.39121,1,119.398,3,-180,0\H,5,1.08039,2,119.798,1,0,0\C,3,1.39191,2,119.079,1,180,0\H,7,1.08135,3,119.367,2,-180,0\C,5,1.39191,2,119.079,1,-180,0\H,9,1.08135,5,119.367,2,180,0\C,7,1.39245,3,120.451,2,0,0\H,11,1.08085,7,120.132,3,-180,0\\HF=-689.714864\\@

 Total job time:  347.68s(wall), 2175.98s(cpu) 
 Thu Sep  6 00:18:37 2018

        *************************************************************
        *                                                           *
        *  Thank you very much for using Q-Chem.  Have a nice day.  *
        *                                                           *
        *************************************************************


