[Molden Format]
[Atoms] (Angs)
  H      1    1     -2.14003202      0.00000000      0.38146042
  C      2    6     -1.21205832      0.00000000     -0.17180643
  C      3    6     -1.20429565      0.00000000     -1.56369320
  H      4    1     -2.14371879      0.00000000     -2.09923439
  C      5    6     -0.00000000      0.00000000     -2.26269040
  H      6    1     -0.00000000      0.00000000     -3.34354440
  C      7    6      1.20429565      0.00000000     -1.56369320
  H      8    1      2.14371879      0.00000000     -2.09923439
  C      9    6      1.21205832     -0.00000000     -0.17180643
  H     10    1      2.14003202     -0.00000000      0.38146042
  C     11    6      0.00000000     -0.00000000      0.51110416
 Cl     12   17      0.00000000     -0.00000000      2.24203561
[GTO]
1    0
S    3    1.000000
   3.38650000E+01    2.54938000E-02 
   5.09479000E+00    1.90373000E-01 
   1.15879000E+00    8.52161000E-01 
S    1    1.000000
   3.25840000E-01    1.00000000E+00 
S    1    1.000000
   1.02741000E-01    1.00000000E+00 
S    1    1.000000
   3.60000000E-02    1.00000000E+00 
P    1    1.000000
   7.50000000E-01    1.00000000E+00 

2    0
S    1    1.000000
   4.56324000E+03    1.96665000E-03 
S    1    1.000000
   6.82024000E+02    1.52306000E-02 
S    1    1.000000
   1.54973000E+02    7.61269000E-02 
S    1    1.000000
   4.44553000E+01    2.60801000E-01 
S    1    1.000000
   1.30290000E+01    6.16462000E-01 
S    1    1.000000
   1.82773000E+00    2.21006000E-01 
SP   3    1.000000
   2.09642000E+01    1.14660000E-01   4.02487000E-02 
   4.80331000E+00    9.19999000E-01   2.37594000E-01 
   1.45933000E+00   -3.03068000E-03   8.15854000E-01 
SP   1    1.000000
   4.83456000E-01    1.00000000E+00   1.00000000E+00 
SP   1    1.000000
   1.45585000E-01    1.00000000E+00   1.00000000E+00 
SP   1    1.000000
   4.38000000E-02    1.00000000E+00   1.00000000E+00 
SP   1    1.000000
   1.31927711E-02    1.00000000E+00   1.00000000E+00 
D    1    1.000000
   6.26000000E-01    1.00000000E+00 

3    0
S    1    1.000000
   4.56324000E+03    1.96665000E-03 
S    1    1.000000
   6.82024000E+02    1.52306000E-02 
S    1    1.000000
   1.54973000E+02    7.61269000E-02 
S    1    1.000000
   4.44553000E+01    2.60801000E-01 
S    1    1.000000
   1.30290000E+01    6.16462000E-01 
S    1    1.000000
   1.82773000E+00    2.21006000E-01 
SP   3    1.000000
   2.09642000E+01    1.14660000E-01   4.02487000E-02 
   4.80331000E+00    9.19999000E-01   2.37594000E-01 
   1.45933000E+00   -3.03068000E-03   8.15854000E-01 
SP   1    1.000000
   4.83456000E-01    1.00000000E+00   1.00000000E+00 
SP   1    1.000000
   1.45585000E-01    1.00000000E+00   1.00000000E+00 
SP   1    1.000000
   4.38000000E-02    1.00000000E+00   1.00000000E+00 
SP   1    1.000000
   1.31927711E-02    1.00000000E+00   1.00000000E+00 
D    1    1.000000
   6.26000000E-01    1.00000000E+00 

4    0
S    3    1.000000
   3.38650000E+01    2.54938000E-02 
   5.09479000E+00    1.90373000E-01 
   1.15879000E+00    8.52161000E-01 
S    1    1.000000
   3.25840000E-01    1.00000000E+00 
S    1    1.000000
   1.02741000E-01    1.00000000E+00 
S    1    1.000000
   3.60000000E-02    1.00000000E+00 
P    1    1.000000
   7.50000000E-01    1.00000000E+00 

5    0
S    1    1.000000
   4.56324000E+03    1.96665000E-03 
S    1    1.000000
   6.82024000E+02    1.52306000E-02 
S    1    1.000000
   1.54973000E+02    7.61269000E-02 
S    1    1.000000
   4.44553000E+01    2.60801000E-01 
S    1    1.000000
   1.30290000E+01    6.16462000E-01 
S    1    1.000000
   1.82773000E+00    2.21006000E-01 
SP   3    1.000000
   2.09642000E+01    1.14660000E-01   4.02487000E-02 
   4.80331000E+00    9.19999000E-01   2.37594000E-01 
   1.45933000E+00   -3.03068000E-03   8.15854000E-01 
SP   1    1.000000
   4.83456000E-01    1.00000000E+00   1.00000000E+00 
SP   1    1.000000
   1.45585000E-01    1.00000000E+00   1.00000000E+00 
SP   1    1.000000
   4.38000000E-02    1.00000000E+00   1.00000000E+00 
SP   1    1.000000
   1.31927711E-02    1.00000000E+00   1.00000000E+00 
D    1    1.000000
   6.26000000E-01    1.00000000E+00 

6    0
S    3    1.000000
   3.38650000E+01    2.54938000E-02 
   5.09479000E+00    1.90373000E-01 
   1.15879000E+00    8.52161000E-01 
S    1    1.000000
   3.25840000E-01    1.00000000E+00 
S    1    1.000000
   1.02741000E-01    1.00000000E+00 
S    1    1.000000
   3.60000000E-02    1.00000000E+00 
P    1    1.000000
   7.50000000E-01    1.00000000E+00 

7    0
S    1    1.000000
   4.56324000E+03    1.96665000E-03 
S    1    1.000000
   6.82024000E+02    1.52306000E-02 
S    1    1.000000
   1.54973000E+02    7.61269000E-02 
S    1    1.000000
   4.44553000E+01    2.60801000E-01 
S    1    1.000000
   1.30290000E+01    6.16462000E-01 
S    1    1.000000
   1.82773000E+00    2.21006000E-01 
SP   3    1.000000
   2.09642000E+01    1.14660000E-01   4.02487000E-02 
   4.80331000E+00    9.19999000E-01   2.37594000E-01 
   1.45933000E+00   -3.03068000E-03   8.15854000E-01 
SP   1    1.000000
   4.83456000E-01    1.00000000E+00   1.00000000E+00 
SP   1    1.000000
   1.45585000E-01    1.00000000E+00   1.00000000E+00 
SP   1    1.000000
   4.38000000E-02    1.00000000E+00   1.00000000E+00 
SP   1    1.000000
   1.31927711E-02    1.00000000E+00   1.00000000E+00 
D    1    1.000000
   6.26000000E-01    1.00000000E+00 

8    0
S    3    1.000000
   3.38650000E+01    2.54938000E-02 
   5.09479000E+00    1.90373000E-01 
   1.15879000E+00    8.52161000E-01 
S    1    1.000000
   3.25840000E-01    1.00000000E+00 
S    1    1.000000
   1.02741000E-01    1.00000000E+00 
S    1    1.000000
   3.60000000E-02    1.00000000E+00 
P    1    1.000000
   7.50000000E-01    1.00000000E+00 

9    0
S    1    1.000000
   4.56324000E+03    1.96665000E-03 
S    1    1.000000
   6.82024000E+02    1.52306000E-02 
S    1    1.000000
   1.54973000E+02    7.61269000E-02 
S    1    1.000000
   4.44553000E+01    2.60801000E-01 
S    1    1.000000
   1.30290000E+01    6.16462000E-01 
S    1    1.000000
   1.82773000E+00    2.21006000E-01 
SP   3    1.000000
   2.09642000E+01    1.14660000E-01   4.02487000E-02 
   4.80331000E+00    9.19999000E-01   2.37594000E-01 
   1.45933000E+00   -3.03068000E-03   8.15854000E-01 
SP   1    1.000000
   4.83456000E-01    1.00000000E+00   1.00000000E+00 
SP   1    1.000000
   1.45585000E-01    1.00000000E+00   1.00000000E+00 
SP   1    1.000000
   4.38000000E-02    1.00000000E+00   1.00000000E+00 
SP   1    1.000000
   1.31927711E-02    1.00000000E+00   1.00000000E+00 
D    1    1.000000
   6.26000000E-01    1.00000000E+00 

10    0
S    3    1.000000
   3.38650000E+01    2.54938000E-02 
   5.09479000E+00    1.90373000E-01 
   1.15879000E+00    8.52161000E-01 
S    1    1.000000
   3.25840000E-01    1.00000000E+00 
S    1    1.000000
   1.02741000E-01    1.00000000E+00 
S    1    1.000000
   3.60000000E-02    1.00000000E+00 
P    1    1.000000
   7.50000000E-01    1.00000000E+00 

11    0
S    1    1.000000
   4.56324000E+03    1.96665000E-03 
S    1    1.000000
   6.82024000E+02    1.52306000E-02 
S    1    1.000000
   1.54973000E+02    7.61269000E-02 
S    1    1.000000
   4.44553000E+01    2.60801000E-01 
S    1    1.000000
   1.30290000E+01    6.16462000E-01 
S    1    1.000000
   1.82773000E+00    2.21006000E-01 
SP   3    1.000000
   2.09642000E+01    1.14660000E-01   4.02487000E-02 
   4.80331000E+00    9.19999000E-01   2.37594000E-01 
   1.45933000E+00   -3.03068000E-03   8.15854000E-01 
SP   1    1.000000
   4.83456000E-01    1.00000000E+00   1.00000000E+00 
SP   1    1.000000
   1.45585000E-01    1.00000000E+00   1.00000000E+00 
SP   1    1.000000
   4.38000000E-02    1.00000000E+00   1.00000000E+00 
SP   1    1.000000
   1.31927711E-02    1.00000000E+00   1.00000000E+00 
D    1    1.000000
   6.26000000E-01    1.00000000E+00 

12    0
S    6    1.000000
   1.05819000E+05    7.38000000E-04 
   1.58720000E+04    5.71800000E-03 
   3.61965000E+03    2.94950000E-02 
   1.03080000E+03    1.17286000E-01 
   3.39908000E+02    3.62949000E-01 
   1.24538000E+02    5.84149000E-01 
S    3    1.000000
   1.24538000E+02    1.34177000E-01 
   4.95135000E+01    6.24250000E-01 
   2.08056000E+01    2.91756000E-01 
S    1    1.000000
   6.58346000E+00    1.00000000E+00 
S    1    1.000000
   2.56468000E+00    1.00000000E+00 
S    1    1.000000
   5.59763000E-01    1.00000000E+00 
S    1    1.000000
   1.83273000E-01    1.00000000E+00 
P    5    1.000000
   5.89776000E+02    2.39100000E-03 
   1.39849000E+02    1.85040000E-02 
   4.51413000E+01    8.13770000E-02 
   1.68733000E+01    2.21552000E-01 
   6.74110000E+00    7.72569000E-01 
P    2    1.000000
   6.74110000E+00   -1.57224400E+00 
   2.77152000E+00    9.92389000E-01 
P    1    1.000000
   1.02387000E+00    1.00000000E+00 
P    1    1.000000
   3.81368000E-01    1.00000000E+00 
P    1    1.000000
   1.09437000E-01    1.00000000E+00 
SP   1    1.000000
   4.83000000E-02    1.00000000E+00   1.00000000E+00 
SP   1    1.000000
   1.45481928E-02    1.00000000E+00   1.00000000E+00 
D    1    1.000000
   7.50000000E-01    1.00000000E+00 

[MO]
Sym=X
Ene= 2.000130
Spin=Alpha
Occup=1
     1   -2.803444669990e-13
     2   -2.862573892930e-13
     3    1.368007166677e-13
     4   -3.902653936956e-12
     5    1.435373673428e-14
     6   -1.549854463830e-03
     7   -9.449421147539e-14
     8    3.397172317709e-16
     9   -2.303241824983e-15
    10   -4.185575681974e-15
    11   -1.690566205476e-14
    12   -4.253634913800e-14
    13   -1.028683241219e-13
    14   -9.392831759936e-14
    15   -7.336441158654e-13
    16   -1.446488300936e-02
    17   -1.689076780429e-12
    18    7.485967929544e-13
    19   -9.715857248236e-13
    20   -2.532024736098e-02
    21   -2.603131734830e-12
    22   -2.926765158320e-12
    23   -1.000900755276e-12
    24    1.325914792685e-02
    25   -2.223730520200e-12
    26    4.806677597937e-12
    27    4.588749659207e-13
    28   -4.966740200248e-02
    29    7.345338667549e-12
    30    7.340118739468e-13
    31   -5.927527570675e-12
    32    1.135624507671e-01
    33   -7.779715827226e-12
    34    3.674764191354e-13
    35    2.671712411660e-14
    36   -3.081661384514e-03
    37   -2.131439700339e-13
    38   -5.726241790728e-03
    39   -1.553935879883e-16
    40   -6.444572451993e-16
    41   -4.745927322801e-15
    42   -1.401812921025e-14
    43   -6.869815596706e-14
    44   -1.202191621649e-13
    45   -2.167114275656e-14
    46    3.951210883401e-13
    47   -6.644791838318e-03
    48    1.842228012407e-12
    49    6.755859959771e-13
    50    6.207128317161e-13
    51   -1.071774166192e-02
    52    2.876058190522e-12
    53   -7.899950600609e-13
    54    8.948462775417e-13
    55   -1.072942359284e-02
    56    2.364956726687e-12
    57    5.120341541064e-12
    58   -2.159880871372e-12
    59    3.303250437410e-02
    60   -9.217993212572e-13
    61    3.022080481389e-12
    62    2.212762404104e-12
    63   -8.333470806908e-02
    64    2.687511669760e-12
    65    2.510059625705e-13
    66   -1.363143707767e-13
    67   -9.828632636462e-04
    68   -1.543615334359e-13
    69   -1.106288513629e-03
    70   -1.080550498627e-12
    71   -1.596353121237e-12
    72    1.713542070967e-13
    73   -3.003022672459e-12
    74   -8.967597991232e-14
    75   -1.793420567388e-04
    76   -6.417392928303e-15
    77    4.571987603082e-16
    78    5.897894130829e-15
    79    2.501239748043e-14
    80    9.076030867187e-14
    81    2.081966143307e-13
    82    8.896188260091e-14
    83    4.820616245996e-13
    84    4.878726550258e-14
    85   -7.935568766154e-03
    86   -2.487874010520e-13
    87   -1.005811871845e-12
    88    1.170244969332e-13
    89   -1.421974083174e-02
    90   -3.700978111703e-13
    91   -1.308147424110e-12
    92   -6.341151082754e-13
    93   -9.009074921665e-03
    94   -1.315453140386e-12
    95    1.666153648997e-11
    96    3.332329104879e-12
    97   -3.044842306994e-02
    98    2.778087001014e-13
    99    6.023272759685e-12
   100    5.838976028563e-13
   101    7.242865278074e-02
   102   -2.062988338540e-12
   103    3.363033294291e-13
   104   -3.058314128194e-14
   105   -8.881717671413e-04
   106   -2.314971167586e-13
   107   -8.933071485992e-15
   108    3.068589187716e-13
   109    6.241409564981e-13
   110    1.454045860195e-13
   111   -4.105667117978e-12
   112    1.839802993959e-14
   113   -8.238944449935e-04
   114   -2.781421959765e-14
   115   -1.591062113048e-16
   116    5.845394264767e-16
   117   -4.953346161008e-16
   118   -4.342524768471e-15
   119    2.399968293248e-14
   120    4.334366837579e-14
   121   -8.212278699882e-14
   122   -3.316134145638e-13
   123   -6.644791838351e-03
   124    1.774367916293e-12
   125   -1.242000039669e-13
   126   -4.684965058794e-13
   127   -1.071774166200e-02
   128    2.734286893300e-12
   129    8.375534096217e-13
   130   -1.185147869926e-12
   131   -1.072942359290e-02
   132    1.511017051039e-12
   133   -1.440094669238e-12
   134    7.426680731355e-12
   135    3.303250437489e-02
   136    2.068726883534e-12
   137    3.970907362198e-12
   138   -4.919681017629e-13
   139   -8.333470807505e-02
   140    5.077528116384e-12
   141    1.967312174665e-13
   142    1.500549217245e-13
   143   -9.828632636802e-04
   144   -1.574068077486e-13
   145    1.106288513660e-03
   146   -9.739018075687e-13
   147   -1.221693401893e-12
   148   -9.321892159471e-13
   149   -6.328635538166e-12
   150    1.227040817259e-13
   151   -1.793420567131e-04
   152    5.597230525760e-15
   153    1.346758906933e-16
   154    1.657460288776e-16
   155    8.004257678506e-16
   156    5.001536817489e-15
   157   -8.490642215712e-15
   158    1.721752372894e-15
   159    7.235390275966e-14
   160    6.561898164849e-13
   161   -1.446488300945e-02
   162   -1.716443103191e-12
   163   -3.986208493752e-13
   164    9.455930309115e-13
   165   -2.532024736112e-02
   166   -2.570325872822e-12
   167    1.471221577752e-12
   168    1.289599363309e-13
   169    1.325914792671e-02
   170   -1.408419456425e-12
   171   -1.793098761519e-11
   172    1.601161165054e-12
   173   -4.966740200348e-02
   174    5.670924922600e-12
   175    1.331742589645e-12
   176   -2.587262492016e-12
   177    1.135624507739e-01
   178   -1.251912828496e-11
   179    3.361196519331e-13
   180   -3.304500958932e-14
   181   -3.081661384496e-03
   182   -2.339275005316e-13
   183    5.726241790758e-03
   184   -3.095642832289e-13
   185   -2.457145813608e-13
   186   -7.396267238324e-13
   187   -1.308191311881e-12
   188    6.395038115960e-14
   189   -1.549854463815e-03
   190   -8.098814972741e-14
   191   -4.750149152428e-16
   192   -1.088956634158e-14
   193   -4.644096413837e-14
   194   -1.693609689384e-13
   195   -3.996257984670e-13
   196   -1.939087894790e-13
   197   -3.965480966339e-13
   198   -6.625650638541e-14
   199   -5.757987482212e-02
   200    2.412633712032e-12
   201   -8.011272717155e-13
   202   -7.012346013867e-14
   203   -1.047734476851e-01
   204    4.363142360880e-12
   205    7.981519463623e-13
   206   -1.496637323855e-12
   207   -8.138316053834e-02
   208    2.941381949542e-12
   209   -2.138407375254e-12
   210    5.542575850731e-12
   211    6.716317945509e-02
   212   -1.638706831835e-11
   213    3.577361252992e-12
   214    3.571246083676e-12
   215   -1.295947068804e-01
   216    2.701936347557e-11
   217    9.153596839773e-13
   218   -9.531819958054e-14
   219   -2.281233908989e-02
   220   -3.374627243533e-13
   221   -2.721740964591e-14
   222    2.317545170925e-12
   223    4.409321405392e-12
   224   -2.982770187879e-12
   225   -5.495247219106e-12
   226    6.853550588416e-12
   227    5.196530487362e-12
   228   -9.688105714681e-13
   229    3.350212273124e-01
   230    7.002191867547e-12
   231   -3.002941167922e-13
   232    8.061109292610e-02
   233    1.795788784213e-12
   234   -1.404674555804e-12
   235   -2.310850168478e-01
   236   -2.173378607841e-12
   237   -3.025348303783e-12
   238   -5.633498324267e-01
   239   -5.378000009619e-12
   240   -1.846419651259e-12
   241   -3.375142931462e-01
   242   -1.758768927826e-12
   243    1.152032449934e-11
   244   -1.366783776483e-13
   245    4.808073196766e-02
   246   -1.506925271653e-12
   247   -1.539325637694e-11
   248    5.372462683059e-13
   249   -1.694898866722e-02
   250   -2.388511906927e-12
   251    6.836740421684e-13
   252    7.586745316204e-14
   253    2.283576490483e-02
   254   -2.598929973606e-14
   255   -1.354145268407e-14
Sym=X
Ene= 2.000000
Spin=Alpha
Occup=1
     1    1.489670797102e-06
     2    1.507503495484e-04
     3   -8.086715029236e-04
     4   -6.283474166999e-03
     5   -4.815355233260e-05
     6   -4.106019686073e-14
     7   -7.365029871852e-05
     8    2.442355188952e-08
     9    1.757236066457e-07
    10    9.687139748507e-07
    11    2.997540018767e-06
    12    1.159955634151e-05
    13    3.499530421488e-05
    14   -4.782279795378e-06
    15   -5.252646644497e-05
    16   -5.337921458345e-13
    17    4.463336423395e-05
    18   -7.784584906515e-05
    19   -1.215075721506e-04
    20   -9.476125760179e-13
    21   -2.707739413670e-04
    22    9.318182631511e-05
    23    5.649440320482e-04
    24    3.372454817477e-13
    25    8.286224250634e-04
    26   -9.887205139416e-03
    27   -1.057948892868e-02
    28   -2.230032888688e-12
    29   -3.565165555260e-04
    30   -2.830695678456e-03
    31   -2.562117490484e-04
    32    5.248299757934e-12
    33    3.441421673740e-03
    34    7.893446971488e-05
    35   -1.235204269809e-04
    36   -6.959138716973e-14
    37    9.553230308309e-06
    38   -2.405552440745e-13
    39   -2.832416801166e-08
    40   -3.264484461959e-07
    41   -8.623981972601e-07
    42   -6.002966028325e-06
    43    1.318523177685e-05
    44    1.070277052824e-04
    45   -8.019904122527e-05
    46   -2.852272663419e-05
    47   -2.671854975671e-13
    48    1.090886603429e-05
    49   -2.824722267314e-04
    50    1.261530344986e-05
    51   -3.763865682755e-13
    52   -1.553630675972e-04
    53    1.329397521270e-03
    54   -1.668331619324e-04
    55   -4.385864807374e-13
    56    6.284198481948e-04
    57   -1.800547717487e-02
    58   -2.591986369775e-03
    59    1.582792248170e-12
    60   -6.498968081712e-03
    61   -4.257508763829e-03
    62   -1.352288023698e-03
    63   -3.852146053550e-12
    64   -7.526477684254e-04
    65   -3.900305848720e-05
    66   -1.150152791160e-05
    67   -2.478924890042e-14
    68    7.390884144502e-05
    69   -5.750052424109e-14
    70    3.433021712740e-06
    71    3.707243700039e-06
    72   -2.129304039418e-04
    73   -2.687257259302e-03
    74    8.958332879167e-07
    75   -7.505776040494e-15
    76   -3.627726365408e-05
    77   -2.602207953794e-09
    78   -8.947987920300e-08
    79    9.871728403180e-08
    80   -1.697459279698e-06
    81    1.233905279338e-05
    82    6.630186194997e-05
    83   -2.019521929228e-05
    84   -1.744676075255e-14
    85   -3.181312484040e-13
    86    4.424581855122e-05
    87   -2.532705639530e-04
    88    8.892055931898e-15
    89   -5.420430380372e-13
    90   -5.299476899643e-05
    91    1.453233952823e-04
    92    4.936515647102e-13
    93   -3.679992515253e-13
    94   -1.255409754327e-04
    95    1.008739246266e-02
    96   -3.370116443566e-11
    97   -1.375681407778e-12
    98    5.232698904643e-03
    99   -3.049199122680e-03
   100   -2.304244156825e-14
   101    3.173233571372e-12
   102   -1.144229122182e-03
   103    3.565984462971e-05
   104   -1.035879961251e-14
   105   -3.888584533883e-14
   106   -4.325477409297e-06
   107   -3.647555639937e-16
   108   -5.667445657826e-05
   109   -1.850605168203e-04
   110    1.401070698179e-04
   111    1.703357553959e-03
   112   -1.134008628748e-14
   113   -3.353086468594e-14
   114   -3.085604695557e-05
   115   -2.832417293504e-08
   116   -3.264484841922e-07
   117   -8.623983889455e-07
   118   -6.002966675328e-06
   119    1.318523018728e-05
   120    1.070277046573e-04
   121   -8.019904316814e-05
   122    2.852272668652e-05
   123   -2.744896980776e-13
   124    1.090886597523e-05
   125   -2.824722267289e-04
   126   -1.261530338344e-05
   127   -3.876340758398e-13
   128   -1.553630677288e-04
   129    1.329397519755e-03
   130    1.668331634324e-04
   131   -4.475932069281e-13
   132    6.284198478123e-04
   133   -1.800547717396e-02
   134    2.591986335544e-03
   135    1.581680055936e-12
   136   -6.498968137325e-03
   137   -4.257508764669e-03
   138    1.352288021745e-03
   139   -3.872030103910e-12
   140   -7.526477725416e-04
   141   -3.900305849530e-05
   142    1.150152789388e-05
   143   -2.467228643580e-14
   144    7.390884144987e-05
   145    5.737974275645e-14
   146    3.433021726157e-06
   147    3.707243537367e-06
   148   -2.129304052289e-04
   149   -2.687257260051e-03
   150   -8.958332570519e-07
   151   -6.952273378846e-15
   152   -3.627726366403e-05
   153    2.442354502258e-08
   154    1.757235530599e-07
   155    9.687137054191e-07
   156    2.997539082021e-06
   157    1.159955421777e-05
   158    3.499530345787e-05
   159   -4.782282589797e-06
   160    5.252646640911e-05
   161   -5.410157366075e-13
   162    4.463336382591e-05
   163   -7.784585039172e-05
   164    1.215075722990e-04
   165   -9.589652578630e-13
   166   -2.707739417775e-04
   167    9.318183087249e-05
   168   -5.649440350094e-04
   169    3.263884656701e-13
   170    8.286224258061e-04
   171   -9.887205249065e-03
   172    1.057948897818e-02
   173   -2.229842720008e-12
   174   -3.565166365347e-04
   175   -2.830695680934e-03
   176    2.562117506382e-04
   177    5.265117260147e-12
   178    3.441421674801e-03
   179    7.893446969275e-05
   180    1.235204270668e-04
   181   -6.941825809613e-14
   182    9.553230233507e-06
   183    2.409269270533e-13
   184    1.489670490878e-06
   185    1.507503488826e-04
   186   -8.086715000158e-04
   187   -6.283474163475e-03
   188    4.815355245720e-05
   189   -4.181048263852e-14
   190   -7.365029873065e-05
   191    4.040961599435e-06
   192    3.122647631829e-05
   193    1.558304395083e-04
   194    5.337449614046e-04
   195    1.281419177669e-03
   196    4.876851774670e-04
   197    1.495809490298e-03
   198   -5.307716776857e-13
   199   -2.083231623165e-12
   200    7.181608907913e-04
   201    1.093098127900e-03
   202   -6.650887896595e-13
   203   -4.193273441581e-12
   204   -5.883489778531e-05
   205   -1.449579241523e-03
   206   -3.322897346642e-12
   207   -2.042690477551e-12
   208    2.033361444253e-03
   209    1.525513463093e-02
   210    7.026960530755e-11
   211    2.201957389897e-12
   212   -3.841130678669e-02
   213   -2.875274854810e-03
   214    1.267151044847e-12
   215   -5.201099737750e-12
   216   -1.857210483535e-02
   217   -1.516493294739e-04
   218   -2.442845061389e-13
   219   -9.804277411521e-13
   220    8.859603159911e-05
   221   -4.215048600336e-16
   222   -8.159131045553e-03
   223   -1.253439878282e-01
   224    4.204505450831e-01
   225    4.881396259085e-01
   226    5.136636135735e-02
   227   -1.201584206237e-04
   228    4.103282612831e-10
   229   -4.062451613430e-09
   230    6.400051860830e-01
   231    1.089591706353e-10
   232   -1.080014133367e-09
   233    1.702250212506e-01
   234    1.339193271480e-11
   235   -1.716393843905e-10
   236    2.718983446089e-02
   237   -7.520112279208e-12
   238   -1.240676940325e-11
   239   -2.744396415266e-04
   240   -3.669680312001e-12
   241   -1.739661167444e-11
   242    3.740186589631e-03
   243    4.715297331274e-02
   244   -2.335178584841e-12
   245    4.792652950766e-12
   246   -1.428404092828e-02
   247    2.537179993594e-02
   248   -1.500351485806e-13
   249   -1.802634372694e-12
   250   -7.115178266870e-04
   251    6.695012359877e-05
   252    6.517502924667e-14
   253    2.230296314090e-12
   254    1.853145739905e-05
   255   -3.130055708843e-16
Sym=X
Ene= 2.000000
Spin=Alpha
Occup=1
     1   -2.545792764954e-06
     2   -3.685420782689e-05
     3    1.673109329384e-04
     4    1.270787367449e-03
     5    8.208944896931e-06
     6   -4.377869229627e-14
     7    1.560643408435e-05
     8   -5.985425778831e-09
     9   -4.175012120353e-08
    10   -2.402831925220e-07
    11   -7.046586656999e-07
    12   -2.712304854825e-06
    13   -6.655484751531e-06
    14    5.361705348887e-07
    15    1.369037411295e-05
    16   -5.754305658182e-13
    17   -8.496493999552e-06
    18    1.383390296103e-05
    19    2.336774163083e-05
    20   -1.031093265535e-12
    21    5.250643841731e-05
    22   -1.598509429426e-05
    23   -1.107654211140e-04
    24    4.129217040803e-13
    25   -1.711400058033e-04
    26    2.010684887450e-03
    27    2.135693304701e-03
    28   -2.727402118369e-12
    29    5.194110614886e-05
    30    5.591472708948e-04
    31    4.318652578029e-05
    32    7.970081943994e-12
    33   -7.028929757104e-04
    34   -1.613788497484e-05
    35    2.213266423019e-05
    36   -7.693195029794e-14
    37   -2.000180119239e-06
    38   -2.667805057331e-13
    39    7.334039786184e-09
    40    7.086208369573e-08
    41    2.515230312029e-07
    42    1.277414125157e-06
    43   -1.726500655682e-06
    44   -2.026374316960e-05
    45    1.595304484814e-05
    46    6.573579416404e-06
    47   -2.891812709020e-13
    48   -1.728247134981e-06
    49    5.333773468276e-05
    50   -1.492975854978e-06
    51   -3.927218253244e-13
    52    3.086429880139e-05
    53   -2.652125269959e-04
    54    4.057708946163e-05
    55   -5.029230832391e-13
    56   -1.238679660037e-04
    57    3.619233886166e-03
    58    5.268904456614e-04
    59    2.003772964972e-12
    60    1.304736521211e-03
    61    8.478437381504e-04
    62    2.766609032262e-04
    63   -6.378114859280e-12
    64    1.486180872192e-04
    65    7.702396215045e-06
    66    1.412218695161e-06
    67   -2.482368507617e-14
    68   -1.493769059573e-05
    69   -6.421672006439e-14
    70   -1.841662000522e-06
    71   -7.697718672239e-07
    72    4.462282942088e-05
    73    5.388281124843e-04
    74   -7.432220452363e-08
    75   -6.842948552140e-15
    76    7.294002256955e-06
    77    1.385558970673e-10
    78    1.417452992949e-08
    79   -3.559409086587e-08
    80    2.717316622208e-07
    81   -2.608048734558e-06
    82   -1.338480142585e-05
    83    2.980446829268e-06
    84   -1.055676860451e-14
    85   -3.417337402300e-13
    86   -1.046733515408e-05
    87    5.535841423444e-05
    88    3.058503020116e-14
    89   -5.878108566907e-13
    90    7.039260314707e-06
    91   -3.521010260219e-05
    92    2.336147835832e-14
    93   -3.736277712516e-13
    94    2.127868169725e-05
    95   -2.051803364328e-03
    96    6.604868382548e-12
    97   -1.771382247887e-12
    98   -1.053857159675e-03
    99    6.070367166296e-04
   100   -3.226054998581e-13
   101    5.617558264171e-12
   102    2.334501865788e-04
   103   -6.521459968411e-06
   104    1.859544117187e-14
   105   -3.983145187214e-14
   106    6.560923754842e-07
   107    2.583449592372e-18
   108    1.381859145761e-05
   109    4.043493418019e-05
   110   -2.562131074420e-05
   111   -3.416839433447e-04
   112   -5.109352943399e-15
   113   -3.763659425219e-14
   114    6.445740502972e-06
   115    7.334041035080e-09
   116    7.086208683955e-08
   117    2.515230728174e-07
   118    1.277414244700e-06
   119   -1.726500349469e-06
   120   -2.026374305908e-05
   121    1.595304512498e-05
   122   -6.573579229839e-06
   123   -2.869885977675e-13
   124   -1.728247168957e-06
   125    5.333773531702e-05
   126    1.492976045856e-06
   127   -3.923910997723e-13
   128    3.086429868230e-05
   129   -2.652125289705e-04
   130   -4.057708776701e-05
   131   -5.003575920184e-13
   132   -1.238679677377e-04
   133    3.619233864456e-03
   134   -5.268904285422e-04
   135    2.002902921551e-12
   136    1.304736526237e-03
   137    8.478437365621e-04
   138   -2.766609014646e-04
   139   -6.368259654387e-12
   140    1.486180883709e-04
   141    7.702396186852e-06
   142   -1.412218708929e-06
   143   -2.555351703633e-14
   144   -1.493769058736e-05
   145    6.401510747019e-14
   146   -1.841661730511e-06
   147   -7.697716155230e-07
   148    4.462282829267e-05
   149    5.388281069076e-04
   150    7.432219185895e-08
   151   -6.830174756280e-15
   152    7.294002321785e-06
   153   -5.985422952701e-09
   154   -4.175009170448e-08
   155   -2.402830894528e-07
   156   -7.046582873683e-07
   157   -2.712303934887e-06
   158   -6.655484287893e-06
   159    5.361720267071e-07
   160   -1.369037409715e-05
   161   -5.753226837970e-13
   162   -8.496494939235e-06
   163    1.383390042366e-05
   164   -2.336774125671e-05
   165   -1.027854272229e-12
   166    5.250643734284e-05
   167   -1.598508473436e-05
   168    1.107654175299e-04
   169    4.132903864397e-13
   170   -1.711400056443e-04
   171    2.010684967301e-03
   172   -2.135693329519e-03
   173   -2.725618139205e-12
   174    5.194112463000e-05
   175    5.591472730359e-04
   176   -4.318652773291e-05
   177    7.959272922826e-12
   178   -7.028929777689e-04
   179   -1.613788499150e-05
   180   -2.213266393544e-05
   181   -7.663578167643e-14
   182   -2.000180318076e-06
   183    2.671159895074e-13
   184   -2.545793463312e-06
   185   -3.685420885022e-05
   186    1.673109330689e-04
   187    1.270787371669e-03
   188   -8.208944554552e-06
   189   -4.376598154198e-14
   190    1.560643404825e-05
   191   -9.525816840949e-07
   192   -7.389407690976e-06
   193   -3.667640633662e-05
   194   -1.264006355571e-04
   195   -2.995058510558e-04
   196   -1.082471022075e-04
   197   -3.595053760696e-04
   198   -1.104495528119e-12
   199   -2.304522314328e-12
   200   -1.592641549238e-04
   201   -2.504470193754e-04
   202   -1.173956363589e-12
   203   -4.661871918997e-12
   204   -2.914718635333e-05
   205    3.340816271858e-04