[Molden Format]
[Atoms] (Angs)
  H      1    1     -2.14003202      0.00000000      0.38146042
  C      2    6     -1.21205832      0.00000000     -0.17180643
  C      3    6     -1.20429565      0.00000000     -1.56369320
  H      4    1     -2.14371879      0.00000000     -2.09923439
  C      5    6     -0.00000000      0.00000000     -2.26269040
  H      6    1     -0.00000000      0.00000000     -3.34354440
  C      7    6      1.20429565      0.00000000     -1.56369320
  H      8    1      2.14371879      0.00000000     -2.09923439
  C      9    6      1.21205832     -0.00000000     -0.17180643
  H     10    1      2.14003202     -0.00000000      0.38146042
  C     11    6      0.00000000     -0.00000000      0.51110416
 Cl     12   17      0.00000000     -0.00000000      2.24203561
[GTO]
1    0
S    3    1.000000
   3.38650000E+01    2.54938000E-02 
   5.09479000E+00    1.90373000E-01 
   1.15879000E+00    8.52161000E-01 
S    1    1.000000
   3.25840000E-01    1.00000000E+00 
S    1    1.000000
   1.02741000E-01    1.00000000E+00 
S    1    1.000000
   3.60000000E-02    1.00000000E+00 
P    1    1.000000
   7.50000000E-01    1.00000000E+00 

2    0
S    1    1.000000
   4.56324000E+03    1.96665000E-03 
S    1    1.000000
   6.82024000E+02    1.52306000E-02 
S    1    1.000000
   1.54973000E+02    7.61269000E-02 
S    1    1.000000
   4.44553000E+01    2.60801000E-01 
S    1    1.000000
   1.30290000E+01    6.16462000E-01 
S    1    1.000000
   1.82773000E+00    2.21006000E-01 
SP   3    1.000000
   2.09642000E+01    1.14660000E-01   4.02487000E-02 
   4.80331000E+00    9.19999000E-01   2.37594000E-01 
   1.45933000E+00   -3.03068000E-03   8.15854000E-01 
SP   1    1.000000
   4.83456000E-01    1.00000000E+00   1.00000000E+00 
SP   1    1.000000
   1.45585000E-01    1.00000000E+00   1.00000000E+00 
SP   1    1.000000
   4.38000000E-02    1.00000000E+00   1.00000000E+00 
SP   1    1.000000
   1.31927711E-02    1.00000000E+00   1.00000000E+00 
D    1    1.000000
   6.26000000E-01    1.00000000E+00 

3    0
S    1    1.000000
   4.56324000E+03    1.96665000E-03 
S    1    1.000000
   6.82024000E+02    1.52306000E-02 
S    1    1.000000
   1.54973000E+02    7.61269000E-02 
S    1    1.000000
   4.44553000E+01    2.60801000E-01 
S    1    1.000000
   1.30290000E+01    6.16462000E-01 
S    1    1.000000
   1.82773000E+00    2.21006000E-01 
SP   3    1.000000
   2.09642000E+01    1.14660000E-01   4.02487000E-02 
   4.80331000E+00    9.19999000E-01   2.37594000E-01 
   1.45933000E+00   -3.03068000E-03   8.15854000E-01 
SP   1    1.000000
   4.83456000E-01    1.00000000E+00   1.00000000E+00 
SP   1    1.000000
   1.45585000E-01    1.00000000E+00   1.00000000E+00 
SP   1    1.000000
   4.38000000E-02    1.00000000E+00   1.00000000E+00 
SP   1    1.000000
   1.31927711E-02    1.00000000E+00   1.00000000E+00 
D    1    1.000000
   6.26000000E-01    1.00000000E+00 

4    0
S    3    1.000000
   3.38650000E+01    2.54938000E-02 
   5.09479000E+00    1.90373000E-01 
   1.15879000E+00    8.52161000E-01 
S    1    1.000000
   3.25840000E-01    1.00000000E+00 
S    1    1.000000
   1.02741000E-01    1.00000000E+00 
S    1    1.000000
   3.60000000E-02    1.00000000E+00 
P    1    1.000000
   7.50000000E-01    1.00000000E+00 

5    0
S    1    1.000000
   4.56324000E+03    1.96665000E-03 
S    1    1.000000
   6.82024000E+02    1.52306000E-02 
S    1    1.000000
   1.54973000E+02    7.61269000E-02 
S    1    1.000000
   4.44553000E+01    2.60801000E-01 
S    1    1.000000
   1.30290000E+01    6.16462000E-01 
S    1    1.000000
   1.82773000E+00    2.21006000E-01 
SP   3    1.000000
   2.09642000E+01    1.14660000E-01   4.02487000E-02 
   4.80331000E+00    9.19999000E-01   2.37594000E-01 
   1.45933000E+00   -3.03068000E-03   8.15854000E-01 
SP   1    1.000000
   4.83456000E-01    1.00000000E+00   1.00000000E+00 
SP   1    1.000000
   1.45585000E-01    1.00000000E+00   1.00000000E+00 
SP   1    1.000000
   4.38000000E-02    1.00000000E+00   1.00000000E+00 
SP   1    1.000000
   1.31927711E-02    1.00000000E+00   1.00000000E+00 
D    1    1.000000
   6.26000000E-01    1.00000000E+00 

6    0
S    3    1.000000
   3.38650000E+01    2.54938000E-02 
   5.09479000E+00    1.90373000E-01 
   1.15879000E+00    8.52161000E-01 
S    1    1.000000
   3.25840000E-01    1.00000000E+00 
S    1    1.000000
   1.02741000E-01    1.00000000E+00 
S    1    1.000000
   3.60000000E-02    1.00000000E+00 
P    1    1.000000
   7.50000000E-01    1.00000000E+00 

7    0
S    1    1.000000
   4.56324000E+03    1.96665000E-03 
S    1    1.000000
   6.82024000E+02    1.52306000E-02 
S    1    1.000000
   1.54973000E+02    7.61269000E-02 
S    1    1.000000
   4.44553000E+01    2.60801000E-01 
S    1    1.000000
   1.30290000E+01    6.16462000E-01 
S    1    1.000000
   1.82773000E+00    2.21006000E-01 
SP   3    1.000000
   2.09642000E+01    1.14660000E-01   4.02487000E-02 
   4.80331000E+00    9.19999000E-01   2.37594000E-01 
   1.45933000E+00   -3.03068000E-03   8.15854000E-01 
SP   1    1.000000
   4.83456000E-01    1.00000000E+00   1.00000000E+00 
SP   1    1.000000
   1.45585000E-01    1.00000000E+00   1.00000000E+00 
SP   1    1.000000
   4.38000000E-02    1.00000000E+00   1.00000000E+00 
SP   1    1.000000
   1.31927711E-02    1.00000000E+00   1.00000000E+00 
D    1    1.000000
   6.26000000E-01    1.00000000E+00 

8    0
S    3    1.000000
   3.38650000E+01    2.54938000E-02 
   5.09479000E+00    1.90373000E-01 
   1.15879000E+00    8.52161000E-01 
S    1    1.000000
   3.25840000E-01    1.00000000E+00 
S    1    1.000000
   1.02741000E-01    1.00000000E+00 
S    1    1.000000
   3.60000000E-02    1.00000000E+00 
P    1    1.000000
   7.50000000E-01    1.00000000E+00 

9    0
S    1    1.000000
   4.56324000E+03    1.96665000E-03 
S    1    1.000000
   6.82024000E+02    1.52306000E-02 
S    1    1.000000
   1.54973000E+02    7.61269000E-02 
S    1    1.000000
   4.44553000E+01    2.60801000E-01 
S    1    1.000000
   1.30290000E+01    6.16462000E-01 
S    1    1.000000
   1.82773000E+00    2.21006000E-01 
SP   3    1.000000
   2.09642000E+01    1.14660000E-01   4.02487000E-02 
   4.80331000E+00    9.19999000E-01   2.37594000E-01 
   1.45933000E+00   -3.03068000E-03   8.15854000E-01 
SP   1    1.000000
   4.83456000E-01    1.00000000E+00   1.00000000E+00 
SP   1    1.000000
   1.45585000E-01    1.00000000E+00   1.00000000E+00 
SP   1    1.000000
   4.38000000E-02    1.00000000E+00   1.00000000E+00 
SP   1    1.000000
   1.31927711E-02    1.00000000E+00   1.00000000E+00 
D    1    1.000000
   6.26000000E-01    1.00000000E+00 

10    0
S    3    1.000000
   3.38650000E+01    2.54938000E-02 
   5.09479000E+00    1.90373000E-01 
   1.15879000E+00    8.52161000E-01 
S    1    1.000000
   3.25840000E-01    1.00000000E+00 
S    1    1.000000
   1.02741000E-01    1.00000000E+00 
S    1    1.000000
   3.60000000E-02    1.00000000E+00 
P    1    1.000000
   7.50000000E-01    1.00000000E+00 

11    0
S    1    1.000000
   4.56324000E+03    1.96665000E-03 
S    1    1.000000
   6.82024000E+02    1.52306000E-02 
S    1    1.000000
   1.54973000E+02    7.61269000E-02 
S    1    1.000000
   4.44553000E+01    2.60801000E-01 
S    1    1.000000
   1.30290000E+01    6.16462000E-01 
S    1    1.000000
   1.82773000E+00    2.21006000E-01 
SP   3    1.000000
   2.09642000E+01    1.14660000E-01   4.02487000E-02 
   4.80331000E+00    9.19999000E-01   2.37594000E-01 
   1.45933000E+00   -3.03068000E-03   8.15854000E-01 
SP   1    1.000000
   4.83456000E-01    1.00000000E+00   1.00000000E+00 
SP   1    1.000000
   1.45585000E-01    1.00000000E+00   1.00000000E+00 
SP   1    1.000000
   4.38000000E-02    1.00000000E+00   1.00000000E+00 
SP   1    1.000000
   1.31927711E-02    1.00000000E+00   1.00000000E+00 
D    1    1.000000
   6.26000000E-01    1.00000000E+00 

12    0
S    6    1.000000
   1.05819000E+05    7.38000000E-04 
   1.58720000E+04    5.71800000E-03 
   3.61965000E+03    2.94950000E-02 
   1.03080000E+03    1.17286000E-01 
   3.39908000E+02    3.62949000E-01 
   1.24538000E+02    5.84149000E-01 
S    3    1.000000
   1.24538000E+02    1.34177000E-01 
   4.95135000E+01    6.24250000E-01 
   2.08056000E+01    2.91756000E-01 
S    1    1.000000
   6.58346000E+00    1.00000000E+00 
S    1    1.000000
   2.56468000E+00    1.00000000E+00 
S    1    1.000000
   5.59763000E-01    1.00000000E+00 
S    1    1.000000
   1.83273000E-01    1.00000000E+00 
P    5    1.000000
   5.89776000E+02    2.39100000E-03 
   1.39849000E+02    1.85040000E-02 
   4.51413000E+01    8.13770000E-02 
   1.68733000E+01    2.21552000E-01 
   6.74110000E+00    7.72569000E-01 
P    2    1.000000
   6.74110000E+00   -1.57224400E+00 
   2.77152000E+00    9.92389000E-01 
P    1    1.000000
   1.02387000E+00    1.00000000E+00 
P    1    1.000000
   3.81368000E-01    1.00000000E+00 
P    1    1.000000
   1.09437000E-01    1.00000000E+00 
SP   1    1.000000
   4.83000000E-02    1.00000000E+00   1.00000000E+00 
SP   1    1.000000
   1.45481928E-02    1.00000000E+00   1.00000000E+00 
D    1    1.000000
   7.50000000E-01    1.00000000E+00 

[MO]
Sym=X
Ene= 2.000167
Spin=Alpha
Occup=1
     1    1.141359386804e-02
     2    1.687173985226e-02
     3   -6.665261206544e-03
     4   -5.246342051104e-02
     5   -6.632860075594e-04
     6   -1.863132197708e-13
     7    6.066241742203e-05
     8    2.830370106934e-06
     9    2.147938578057e-05
    10    1.112571537748e-04
    11    3.715161689629e-04
    12    1.005525570551e-03
    13    9.039208198552e-04
    14    1.205338972614e-03
    15   -1.782917333719e-02
    16   -2.345443629371e-12
    17   -1.457993227852e-02
    18   -1.325841602829e-04
    19   -3.206018103467e-02
    20   -4.152164617469e-12
    21   -2.347556387858e-02
    22    2.106330884671e-02
    23   -1.400580465259e-02
    24   -2.293676118929e-12
    25    2.041931555317e-02
    26   -2.544362974745e-01
    27   -1.019694574047e-01
    28   -1.435373196445e-12
    29    5.210199136920e-02
    30   -1.630430829147e-02
    31    1.440229969280e-03
    32    2.268392014433e-12
    33    2.820874184331e-02
    34   -2.149273922305e-03
    35   -1.142585926079e-02
    36    7.213281410520e-14
    37   -8.837164335161e-04
    38   -4.577897758532e-13
    39   -6.747627023642e-06
    40   -5.105080010892e-05
    41   -2.702318418400e-04
    42   -8.933938112991e-04
    43   -2.304959719734e-03
    44   -6.554698130264e-04
    45   -5.316094577840e-03
    46   -6.157683208999e-04
    47   -1.871765495787e-12
    48    5.908628566637e-03
    49    1.590803625838e-02
    50   -5.841058246718e-04
    51   -3.187859771743e-12
    52    8.949658299199e-03
    53   -1.591408256279e-03
    54   -1.736650117324e-02
    55   -2.377415702975e-12
    56   -6.925254823645e-03
    57   -2.604997939895e-01
    58   -1.209830214755e-01
    59    8.237319867765e-13
    60   -5.752046001222e-02
    61   -2.531481982497e-02
    62   -1.275993750964e-02
    63   -1.423276160479e-12
    64   -9.976937753209e-03
    65    1.900321253275e-03
    66   -1.165589666742e-03
    67   -2.361337221332e-13
    68    1.337626395095e-04
    69   -2.498479333571e-13
    70    1.436303515658e-03
    71   -2.655245689306e-04
    72   -1.745154247174e-02
    73   -7.151521572355e-02
    74    3.139583314520e-04
    75   -1.253261715192e-13
    76    4.498937877688e-05
    77    1.006219100625e-06
    78    7.430461211181e-06
    79    4.116610651407e-05
    80    1.291037838403e-04
    81    3.603035548996e-04
    82    4.254994420555e-04
    83    9.739124510623e-04
    84   -1.299857000004e-12
    85   -1.707057344038e-12
    86    2.234643657557e-03
    87   -5.480608453412e-03
    88   -1.984462920955e-12
    89   -2.994444013433e-12
    90    4.126232180564e-03
    91    1.892831255325e-02
    92    1.313666982635e-11
    93   -1.983559069430e-12
    94    1.685924980345e-02
    95    4.601131519852e-01
    96   -2.139823962208e-09
    97   -8.082800423345e-13
    98    1.331709432452e-01
    99    1.178781436536e-02
   100    1.783102658333e-11
   101    1.187077378036e-12
   102    5.836109457816e-03
   103    1.086066285893e-03
   104   -2.802999260537e-13
   105   -3.020530567704e-13
   106   -4.763748828654e-04
   107   -2.234536362945e-15
   108   -2.676678812940e-03
   109   -1.802972382230e-03
   110    4.248819790407e-03
   111    4.058953436084e-02
   112   -6.285669604424e-13
   113   -1.360994812583e-13
   114   -5.888256466550e-04
   115   -6.747626904903e-06
   116   -5.105079919042e-05
   117   -2.702318372525e-04
   118   -8.933937955749e-04
   119   -2.304959682601e-03
   120   -6.554697999234e-04
   121   -5.316094525557e-03
   122    6.157683220247e-04
   123   -1.889669424813e-12
   124    5.908628565945e-03
   125    1.590803625007e-02
   126    5.841058273715e-04
   127   -3.207346331976e-12
   128    8.949658298523e-03
   129   -1.591408292693e-03
   130    1.736650117977e-02
   131   -2.399052318724e-12
   132   -6.925254808725e-03
   133   -2.604997917098e-01
   134    1.209830190688e-01
   135    8.181718791593e-13
   136   -5.752046298541e-02
   137   -2.531481972335e-02
   138    1.275993735756e-02
   139   -1.438454876627e-12
   140   -9.976937933690e-03
   141    1.900321252482e-03
   142    1.165589666558e-03
   143   -2.372454402119e-13
   144    1.337626391641e-04
   145    2.512603941356e-13
   146    1.436303513558e-03
   147   -2.655245683568e-04
   148   -1.745154247963e-02
   149   -7.151521553545e-02
   150   -3.139583311204e-04
   151   -1.267633742582e-13
   152    4.498937899418e-05
   153    2.830370289837e-06
   154    2.147938719159e-05
   155    1.112571608299e-04
   156    3.715161931491e-04
   157    1.005525627756e-03
   158    9.039208408325e-04
   159    1.205339051301e-03
   160    1.782917333110e-02
   161   -2.351853984791e-12
   162   -1.457993227806e-02
   163   -1.325841717034e-04
   164    3.206018102650e-02
   165   -4.168060690370e-12
   166   -2.347556387998e-02
   167    2.106330885620e-02
   168    1.400580462291e-02
   169   -2.304511850346e-12
   170    2.041931557412e-02
   171   -2.544363019368e-01
   172    1.019694602929e-01
   173   -1.441043725128e-12
   174    5.210198795741e-02
   175   -1.630430844022e-02
   176   -1.440229866602e-03
   177    2.281382289923e-12
   178    2.820874188686e-02
   179   -2.149273923005e-03
   180    1.142585925867e-02
   181    7.694036145654e-14
   182   -8.837164333111e-04
   183    4.589396405882e-13
   184    1.141359386271e-02
   185    1.687173984610e-02
   186   -6.665261211160e-03
   187   -5.246342079850e-02
   188    6.632860086341e-04
   189   -1.868120839131e-13
   190    6.066241773431e-05
   191    9.187817695328e-05
   192    6.871215446158e-04
   193    3.712981955418e-03
   194    1.188708442362e-02
   195    3.095197180463e-02
   196    2.044177280277e-02
   197    8.228164167586e-02
   198    2.449669609354e-12
   199   -3.586490753824e-12
   200   -6.876064765142e-02
   201   -2.698636067939e-01
   202    4.407230629996e-12
   203   -6.307938129486e-12
   204   -1.370544529179e-01
   205   -2.790853223404e-01
   206   -1.839159970447e-11
   207   -4.953158705046e-12
   208   -1.623192808189e-01
   209    4.041151478279e-01
   210    2.909330701004e-09
   211    2.018029705802e-12
   212   -4.682903580467e-01
   213    8.070537028496e-03
   214    2.021042976049e-11
   215   -3.182921049252e-12
   216   -9.895515361927e-02
   217   -1.920082828728e-02
   218    7.953591812709e-13
   219   -2.037153813364e-13
   220   -3.010132835683e-03
   221   -1.869688667133e-15
   222    2.011815197081e-02
   223    5.862144140064e-02
   224   -1.192081517580e-01
   225   -2.263220637908e-01
   226    3.362331501986e-01
   227    4.487122710255e-01
   228   -2.287897715052e-11
   229   -3.602326729292e-12
   230   -2.231328810495e-01
   231   -5.736218355294e-12
   232   -1.142552831603e-12
   233   -5.462257837752e-02
   234    9.145850461961e-12
   235   -5.428168120523e-12
   236    1.645993977113e-01
   237    2.246399941714e-11
   238   -1.217837782535e-11
   239    3.653108115286e-01
   240    1.704662599051e-11
   241   -6.537042681453e-12
   242    6.963509457646e-02
   243    4.584075709061e-01
   244   -1.173697343708e-10
   245    7.637979419796e-13
   246   -9.802323683714e-02
   247    9.357352172620e-02
   248    3.472216947181e-11
   249    1.067152061739e-14
   250    1.948807941298e-03
   251   -5.060197381094e-02
   252   -4.888355440631e-13
   253    8.198666177907e-13
   254    1.136534689074e-03
   255   -4.697683577198e-15
Sym=X
Ene= 2.000121
Spin=Alpha
Occup=1
     1   -8.475542000631e-03
     2   -1.186859642912e-02
     3    2.173827980232e-02
     4   -3.759404601584e-02
     5   -3.867677063362e-03
     6   -2.657852553252e-14
     7   -1.907078164015e-03
     8    2.271031160304e-05
     9    1.712070560609e-04
    10    9.082537949914e-04
    11    2.959989992822e-03
    12    7.628573322629e-03
    13    5.356340999566e-03
    14    1.739342830580e-02
    15   -1.467252095981e-02
    16    3.314735814866e-13
    17   -2.625251810807e-02
    18   -5.464508593907e-02
    19   -2.672921836868e-02
    20    6.134085427954e-13
    21   -3.761898346150e-02
    22    1.455133428662e-01
    23    6.801610178708e-02
    24    3.728625753449e-14
    25    4.373349384783e-02
    26   -1.307863500571e+00
    27   -5.000587777274e-01
    28    1.836779913191e-13
    29   -7.016224747746e-01
    30   -2.517564586383e-02
    31   -8.137479129261e-02
    32    4.749067577704e-12
    33    1.340134408196e-02
    34    1.540919266056e-03
    35   -5.407264085089e-03
    36   -6.747112728019e-14
    37   -4.566212566452e-03
    38    1.317447546125e-13
    39   -7.175790255942e-06
    40   -5.431442659878e-05
    41   -2.876187170205e-04
    42   -9.505634400967e-04
    43   -2.423110400675e-03
    44   -2.908218388718e-04
    45   -5.889155788078e-03
    46   -1.477313814172e-05
    47    1.440172668552e-13
    48    7.788096120641e-03
    49    1.824957285195e-02
    50    1.029615693482e-03
    51    2.264198443927e-13
    52    6.788558199418e-03
    53   -8.510345009824e-03
    54   -3.660141975839e-02
    55    2.447607832450e-13
    56    1.063786205102e-02
    57   -1.630070003869e-01
    58    2.616126809385e-01
    59    4.500456955049e-14
    60   -3.816042133141e-01
    61   -1.207590451771e-02
    62    6.462796359197e-02
    63   -5.294974802688e-12
    64   -2.025156532900e-02
    65    3.321532426605e-04
    66   -1.113803134773e-03
    67    1.035450074585e-13
    68    5.269506854963e-04
    69   -1.393450133069e-14
    70    3.187706352657e-04
    71   -6.860629000143e-03
    72   -1.129129893891e-02
    73    1.367836535820e-02
    74   -1.528046497675e-04
    75   -7.989130551459e-15
    76   -1.706724650265e-04
    77    2.034978410794e-15
    78    1.457757220141e-14
    79    8.414918087189e-14
    80    2.806593230184e-13
    81    5.240751124757e-13
    82   -5.214404047693e-13
    83    1.400486994834e-12
    84   -9.096862283694e-04
    85    1.377619962677e-13
    86   -4.033409011921e-12
    87    3.137938688932e-12
    88   -1.915997423009e-03
    89    2.559811460056e-13
    90   -6.045074681281e-12
    91   -8.479880247155e-11
    92   -2.451779252466e-02
    93    1.182112962750e-15
    94   -1.416339645395e-12
    95    3.426330133114e-10
    96    4.023862301591e-01
    97   -1.406770321464e-13
    98    3.071109980645e-10
    99    7.000680803694e-11
   100   -4.372776958578e-02
   101    5.472820838002e-12
   102    3.979376447209e-11
   103    6.490044296855e-13
   104   -8.056000140950e-04
   105   -8.410525986404e-14
   106   -8.586308577490e-13
   107   -4.446386784643e-16
   108    4.742324331937e-12
   109    8.816133114997e-12
   110    5.926580685019e-11
   111    2.409228461545e-10
   112    3.646316842094e-04
   113    1.159012680974e-13
   114    6.182808780913e-13
   115    7.175790274698e-06
   116    5.431442673782e-05
   117    2.876187177183e-04
   118    9.505634425037e-04
   119    2.423110406227e-03
   120    2.908218403057e-04
   121    5.889155796387e-03
   122   -1.477313753101e-05
   123    1.766724176619e-13
   124   -7.788096115637e-03
   125   -1.824957285237e-02
   126    1.029615694271e-03
   127    2.773406999118e-13
   128   -6.788558190645e-03
   129    8.510344968362e-03
   130   -3.660141979757e-02
   131    2.585919048112e-13
   132   -1.063786211134e-02
   133    1.630070003204e-01
   134    2.616126810224e-01
   135    3.183180697089e-14
   136    3.816042133613e-01
   137    1.207590459638e-02
   138    6.462796364917e-02
   139   -5.301239210563e-12
   140    2.025156528794e-02
   141   -3.321532411026e-04
   142   -1.113803133854e-03
   143    1.152139604151e-13
   144   -5.269506872104e-04
   145    1.553177290847e-14
   146   -3.187706400775e-04
   147    6.860628992348e-03
   148    1.129129891525e-02
   149   -1.367836538435e-02
   150   -1.528046495492e-04
   151   -5.954489985583e-15
   152    1.706724654765e-04
   153   -2.271031158013e-05
   154   -1.712070558891e-04
   155   -9.082537941288e-04
   156   -2.959989989860e-03
   157   -7.628573315541e-03
   158   -5.356340996514e-03
   159   -1.739342829704e-02
   160   -1.467252095893e-02
   161    3.605849147307e-13
   162    2.625251810010e-02
   163    5.464508593711e-02
   164   -2.672921837035e-02
   165    6.511011719384e-13
   166    3.761898345013e-02
   167   -1.455133428062e-01
   168    6.801610184897e-02
   169    1.407701141911e-13
   170   -4.373349390746e-02
   171    1.307863500320e+00
   172   -5.000587775588e-01
   173    1.497517560302e-13
   174    7.016224749640e-01
   175    2.517564601121e-02
   176   -8.137479136604e-02
   177    4.788002249692e-12
   178   -1.340134396012e-02
   179   -1.540919265693e-03
   180   -5.407264087467e-03
   181   -5.954201153239e-14
   182    4.566212565642e-03
   183   -1.627237426631e-13
   184    8.475541995003e-03
   185    1.186859642148e-02
   186   -2.173827991623e-02
   187    3.759404588172e-02
   188   -3.867677063137e-03
   189   -4.945325866035e-14
   190    1.907078163548e-03
   191    5.081361875058e-15
   192    4.267430270422e-14
   193    2.080811333522e-13
   194    7.253093782536e-13
   195    1.686822249185e-12
   196    5.111128579065e-13
   197    2.186054308176e-13
   198    6.529420201052e-02
   199    1.043082578118e-12
   200    5.078625579378e-12
   201    1.007861143873e-11
   202    9.478387031148e-02
   203    1.873933401708e-12
   204    1.090947195466e-11
   205    6.719059403391e-11
   206    2.313394188551e-01
   207    1.502955164652e-12
   208   -3.283690380783e-12
   209    1.969732805246e-10
   210   -1.402442311283e+00
   211   -5.163311031130e-13
   212    9.195306916222e-11
   213    3.246098854248e-11
   214    3.430880283381e-02
   215   -3.927976233069e-12
   216    9.304534694561e-11
   217    2.592288955978e-12
   218    1.743415501240e-02
   219    2.639612462076e-13
   220   -1.331050347016e-12
   221    3.023487112804e-14
   222    2.592874787704e-12
   223    5.083437522293e-12
   224   -3.389904780873e-12
   225   -5.312143784216e-12
   226    3.547444770089e-12
   227   -1.793531353826e-11
   228   -3.185544030721e-01
   229    2.125449473305e-11
   230   -1.193401122114e-11
   231   -7.669407210626e-02
   232    5.773800302756e-12
   233   -3.426471117066e-12
   234    2.292323238474e-01
   235    4.379765362947e-12
   236   -1.007542169771e-11
   237    5.410045604603e-01
   238    8.107487558173e-12
   239   -2.047171952405e-11
   240    3.310343006046e-01
   241    4.835788197350e-12
   242   -2.829316467460e-12
   243   -1.314701213557e-10
   244    3.065671282474e-04
   245   -7.397152872465e-13
   246    5.579510913654e-11
   247   -4.168590848603e-10
   248    2.745219622485e-02
   249   -1.173339451824e-13
   250    5.386270682498e-11
   251    3.316184419506e-12
   252   -1.733351487784e-02
   253   -4.408351296369e-13
   254   -8.777774101125e-13
   255    1.215399812823e-14
Sym=X
Ene= 2.000072
Spin=Alpha
Occup=1
     1    6.498165893456e-13
     2    8.217251655873e-13
     3   -7.681814936236e-13
     4    2.831905828412e-12
     5    4.465194026970e-14
     6    2.335582474592e-03
     7    1.622605760508e-13
     8   -1.160479471852e-15
     9   -4.119322942467e-15
    10   -2.906884682272e-14
    11   -9.284585202200e-14
    12   -2.282285051691e-13
    13   -2.849996471379e-14
    14   -5.126303010030e-13
    15    1.012090350151e-12
    16    2.383655105866e-02
    17    2.142868190266e-12
    18    8.520242576485e-13
    19    1.352290590193e-12
    20    4.400009379836e-02
    21    3.177971116456e-12
    22    1.055279877023e-12
    23   -1.474970977213e-13
    24    3.940006095880e-03
    25    2.087139547042e-12
    26    1.473264687993e-11
    27    6.426052808962e-12
    28    4.907178455146e-02
    29    8.166800651747e-12
    30   -7.683067058130e-13
    31    7.768279071690e-12
    32   -1.087851413252e-01
    33    8.923675338568e-12
    34   -5.078527524344e-13
    35   -2.080585622306e-13
    36    3.294314642902e-03
    37    3.262587086738e-13
    38    7.727548948975e-03
    39    6.350297311253e-17
    40    2.404334396064e-16
    41    2.668238281560e-15
    42    7.186956584592e-15
    43    5.098968477319e-14
    44    1.187249698047e-13
    45   -9.527698133761e-15
    46   -3.989054918730e-13
    47    5.813913614798e-03
    48   -2.014843562122e-12
    49   -6.429726793486e-13
    50   -6.544324059603e-13
    51    8.467667401666e-03
    52   -3.046499113970e-12
    53    8.051777605922e-13
    54   -8.107614021799e-13
    55    6.748557974605e-03
    56   -3.107380841086e-12
    57   -1.133187753136e-11
    58   -7.023688050908e-12
    59   -3.234270383682e-02
    60    6.720059871830e-12
    61   -3.834680863910e-12
    62   -4.054224529413e-12
    63    7.878191151923e-02
    64   -2.780379818025e-12
    65   -2.362955316275e-13
    66    2.051796501254e-13
    67    3.267402717994e-03
    68    1.672662682595e-13
    69    2.717319578938e-04
    70    1.229790788201e-12
    71    1.901530138979e-12
    72   -3.846874576204e-13
    73    5.768347561788e-13
    74    1.051574058156e-13
    75    2.584881753385e-05
    76    2.136003429381e-15
    77   -1.439631068265e-16
    78   -3.558988445063e-15
    79   -1.286306435196e-14
    80   -5.034683178258e-14
    81   -1.091582234352e-13
    82   -3.886849938800e-14
    83   -2.875313955892e-13
    84   -1.020452684213e-15
    85    3.084760251288e-04
    86    5.615099702439e-13
    87    5.763569546008e-13
    88   -5.907581063100e-14
    89    1.018282253552e-03
    90    8.696867847210e-13
    91    1.762446933004e-12
    92    1.226761393913e-12
    93   -5.236896328850e-03
    94    2.164347279592e-12
    95   -2.832041627463e-12
    96   -1.170861370401e-11
    97    2.667413844325e-02
    98    3.862714584562e-12
    99   -5.918264451201e-12
   100    3.439354589876e-13
   101   -6.875882863791e-02
   102    2.203579416177e-12
   103   -3.719890087502e-13
   104    3.812958537287e-14
   105    4.130133138684e-04
   106    2.469279088709e-13
   107    7.821008535271e-15
   108   -6.791667702974e-13
   109   -1.130589265814e-12
   110   -1.436708364552e-13
   111    5.388661801119e-12
   112   -2.450968165904e-14
   113    1.881731184371e-04
   114   -2.767362713027e-14
   115   -1.668510916730e-16
   116   -2.871417349775e-15
   117   -1.171215273025e-14
   118   -3.592450277628e-14
   119   -1.282674328550e-13
   120   -6.045419582853e-14
   121   -1.593806743462e-13
   122    3.856728949343e-13
   123    5.813913614817e-03
   124   -1.666532852372e-12
   125    8.663236282272e-13
   126    5.306733499187e-13
   127    8.467667401724e-03
   128   -2.675844186552e-12
   129   -1.275422529626e-12
   130    2.427960400640e-12
   131    6.748557974659e-03
   132   -1.718334999824e-12
   133   -9.483787033436e-12
   134   -9.485680573636e-12
   135   -3.234270383710e-02
   136   -1.170894291318e-11
   137   -5.134186854119e-12
   138   -4.078919368278e-13
   139    7.878191152411e-02
   140   -5.873507284629e-12
   141   -1.712071295762e-13
   142   -5.648615551102e-14
   143    3.267402718017e-03
   144    1.935391370640e-13
   145   -2.717319579220e-04
   146    1.107238161361e-12
   147    1.214416458515e-12
   148    2.889524437108e-13
   149    4.573818535883e-12
   150   -1.495018682708e-13
   151    2.584881751231e-05
   152   -1.391440768516e-14
   153    4.207770360682e-16
   154    3.736961174257e-15
   155    1.989463504044e-14
   156    6.335290108248e-14
   157    1.874761362895e-13
   158    1.264563424081e-13
   159    2.406487607472e-13
   160    5.597044435724e-13
   161    2.383655105871e-02
   162    1.060747729600e-12
   163   -4.274904923245e-13
   164    1.170936518742e-12
   165    4.400009379844e-02
   166    1.579749038959e-12
   167    2.598292093273e-12
   168   -6.930548495966e-13
   169    3.940006095960e-03
   170    3.195616111861e-12
   171   -1.752636335513e-11
   172    1.245478583242e-11
   173    4.907178455188e-02
   174   -1.839193182963e-11
   175   -2.491934444965e-12
   176    4.228841082325e-12
   177   -1.087851413306e-01
   178    1.394789094293e-11
   179   -4.359788161786e-13
   180    5.657361506968e-13
   181    3.294314642886e-03
   182    1.773223617151e-13
   183   -7.727548949007e-03
   184    9.867473863962e-13
   185    1.276336705149e-12
   186    1.102500165396e-12
   187   -1.397506404453e-12
   188   -1.871161238609e-14
   189    2.335582474571e-03
   190    1.578764097152e-14
   191    1.829464827969e-15
   192    2.052543809524e-14
   193    1.031658109544e-13
   194    3.390425113108e-13
   195    8.855093834378e-13
   196    6.495061443392e-13
   197    2.177734387395e-12
   198   -1.728454803799e-12
   199    7.202872047486e-02
   200   -4.859214991847e-12
   201   -6.778799567624e-12
   202   -2.589161130181e-12
   203    1.294481268337e-01
   204   -9.189703931760e-12
   205   -8.814617496874e-12