[Molden Format]
[Atoms] (Angs)
  H      1    1     -2.14003202      0.00000000      0.38146042
  C      2    6     -1.21205832      0.00000000     -0.17180643
  C      3    6     -1.20429565      0.00000000     -1.56369320
  H      4    1     -2.14371879      0.00000000     -2.09923439
  C      5    6     -0.00000000      0.00000000     -2.26269040
  H      6    1     -0.00000000      0.00000000     -3.34354440
  C      7    6      1.20429565      0.00000000     -1.56369320
  H      8    1      2.14371879      0.00000000     -2.09923439
  C      9    6      1.21205832     -0.00000000     -0.17180643
  H     10    1      2.14003202     -0.00000000      0.38146042
  C     11    6      0.00000000     -0.00000000      0.51110416
 Cl     12   17      0.00000000     -0.00000000      2.24203561
[GTO]
1    0
S    3    1.000000
   3.38650000E+01    2.54938000E-02 
   5.09479000E+00    1.90373000E-01 
   1.15879000E+00    8.52161000E-01 
S    1    1.000000
   3.25840000E-01    1.00000000E+00 
S    1    1.000000
   1.02741000E-01    1.00000000E+00 
S    1    1.000000
   3.60000000E-02    1.00000000E+00 
P    1    1.000000
   7.50000000E-01    1.00000000E+00 

2    0
S    1    1.000000
   4.56324000E+03    1.96665000E-03 
S    1    1.000000
   6.82024000E+02    1.52306000E-02 
S    1    1.000000
   1.54973000E+02    7.61269000E-02 
S    1    1.000000
   4.44553000E+01    2.60801000E-01 
S    1    1.000000
   1.30290000E+01    6.16462000E-01 
S    1    1.000000
   1.82773000E+00    2.21006000E-01 
SP   3    1.000000
   2.09642000E+01    1.14660000E-01   4.02487000E-02 
   4.80331000E+00    9.19999000E-01   2.37594000E-01 
   1.45933000E+00   -3.03068000E-03   8.15854000E-01 
SP   1    1.000000
   4.83456000E-01    1.00000000E+00   1.00000000E+00 
SP   1    1.000000
   1.45585000E-01    1.00000000E+00   1.00000000E+00 
SP   1    1.000000
   4.38000000E-02    1.00000000E+00   1.00000000E+00 
SP   1    1.000000
   1.31927711E-02    1.00000000E+00   1.00000000E+00 
D    1    1.000000
   6.26000000E-01    1.00000000E+00 

3    0
S    1    1.000000
   4.56324000E+03    1.96665000E-03 
S    1    1.000000
   6.82024000E+02    1.52306000E-02 
S    1    1.000000
   1.54973000E+02    7.61269000E-02 
S    1    1.000000
   4.44553000E+01    2.60801000E-01 
S    1    1.000000
   1.30290000E+01    6.16462000E-01 
S    1    1.000000
   1.82773000E+00    2.21006000E-01 
SP   3    1.000000
   2.09642000E+01    1.14660000E-01   4.02487000E-02 
   4.80331000E+00    9.19999000E-01   2.37594000E-01 
   1.45933000E+00   -3.03068000E-03   8.15854000E-01 
SP   1    1.000000
   4.83456000E-01    1.00000000E+00   1.00000000E+00 
SP   1    1.000000
   1.45585000E-01    1.00000000E+00   1.00000000E+00 
SP   1    1.000000
   4.38000000E-02    1.00000000E+00   1.00000000E+00 
SP   1    1.000000
   1.31927711E-02    1.00000000E+00   1.00000000E+00 
D    1    1.000000
   6.26000000E-01    1.00000000E+00 

4    0
S    3    1.000000
   3.38650000E+01    2.54938000E-02 
   5.09479000E+00    1.90373000E-01 
   1.15879000E+00    8.52161000E-01 
S    1    1.000000
   3.25840000E-01    1.00000000E+00 
S    1    1.000000
   1.02741000E-01    1.00000000E+00 
S    1    1.000000
   3.60000000E-02    1.00000000E+00 
P    1    1.000000
   7.50000000E-01    1.00000000E+00 

5    0
S    1    1.000000
   4.56324000E+03    1.96665000E-03 
S    1    1.000000
   6.82024000E+02    1.52306000E-02 
S    1    1.000000
   1.54973000E+02    7.61269000E-02 
S    1    1.000000
   4.44553000E+01    2.60801000E-01 
S    1    1.000000
   1.30290000E+01    6.16462000E-01 
S    1    1.000000
   1.82773000E+00    2.21006000E-01 
SP   3    1.000000
   2.09642000E+01    1.14660000E-01   4.02487000E-02 
   4.80331000E+00    9.19999000E-01   2.37594000E-01 
   1.45933000E+00   -3.03068000E-03   8.15854000E-01 
SP   1    1.000000
   4.83456000E-01    1.00000000E+00   1.00000000E+00 
SP   1    1.000000
   1.45585000E-01    1.00000000E+00   1.00000000E+00 
SP   1    1.000000
   4.38000000E-02    1.00000000E+00   1.00000000E+00 
SP   1    1.000000
   1.31927711E-02    1.00000000E+00   1.00000000E+00 
D    1    1.000000
   6.26000000E-01    1.00000000E+00 

6    0
S    3    1.000000
   3.38650000E+01    2.54938000E-02 
   5.09479000E+00    1.90373000E-01 
   1.15879000E+00    8.52161000E-01 
S    1    1.000000
   3.25840000E-01    1.00000000E+00 
S    1    1.000000
   1.02741000E-01    1.00000000E+00 
S    1    1.000000
   3.60000000E-02    1.00000000E+00 
P    1    1.000000
   7.50000000E-01    1.00000000E+00 

7    0
S    1    1.000000
   4.56324000E+03    1.96665000E-03 
S    1    1.000000
   6.82024000E+02    1.52306000E-02 
S    1    1.000000
   1.54973000E+02    7.61269000E-02 
S    1    1.000000
   4.44553000E+01    2.60801000E-01 
S    1    1.000000
   1.30290000E+01    6.16462000E-01 
S    1    1.000000
   1.82773000E+00    2.21006000E-01 
SP   3    1.000000
   2.09642000E+01    1.14660000E-01   4.02487000E-02 
   4.80331000E+00    9.19999000E-01   2.37594000E-01 
   1.45933000E+00   -3.03068000E-03   8.15854000E-01 
SP   1    1.000000
   4.83456000E-01    1.00000000E+00   1.00000000E+00 
SP   1    1.000000
   1.45585000E-01    1.00000000E+00   1.00000000E+00 
SP   1    1.000000
   4.38000000E-02    1.00000000E+00   1.00000000E+00 
SP   1    1.000000
   1.31927711E-02    1.00000000E+00   1.00000000E+00 
D    1    1.000000
   6.26000000E-01    1.00000000E+00 

8    0
S    3    1.000000
   3.38650000E+01    2.54938000E-02 
   5.09479000E+00    1.90373000E-01 
   1.15879000E+00    8.52161000E-01 
S    1    1.000000
   3.25840000E-01    1.00000000E+00 
S    1    1.000000
   1.02741000E-01    1.00000000E+00 
S    1    1.000000
   3.60000000E-02    1.00000000E+00 
P    1    1.000000
   7.50000000E-01    1.00000000E+00 

9    0
S    1    1.000000
   4.56324000E+03    1.96665000E-03 
S    1    1.000000
   6.82024000E+02    1.52306000E-02 
S    1    1.000000
   1.54973000E+02    7.61269000E-02 
S    1    1.000000
   4.44553000E+01    2.60801000E-01 
S    1    1.000000
   1.30290000E+01    6.16462000E-01 
S    1    1.000000
   1.82773000E+00    2.21006000E-01 
SP   3    1.000000
   2.09642000E+01    1.14660000E-01   4.02487000E-02 
   4.80331000E+00    9.19999000E-01   2.37594000E-01 
   1.45933000E+00   -3.03068000E-03   8.15854000E-01 
SP   1    1.000000
   4.83456000E-01    1.00000000E+00   1.00000000E+00 
SP   1    1.000000
   1.45585000E-01    1.00000000E+00   1.00000000E+00 
SP   1    1.000000
   4.38000000E-02    1.00000000E+00   1.00000000E+00 
SP   1    1.000000
   1.31927711E-02    1.00000000E+00   1.00000000E+00 
D    1    1.000000
   6.26000000E-01    1.00000000E+00 

10    0
S    3    1.000000
   3.38650000E+01    2.54938000E-02 
   5.09479000E+00    1.90373000E-01 
   1.15879000E+00    8.52161000E-01 
S    1    1.000000
   3.25840000E-01    1.00000000E+00 
S    1    1.000000
   1.02741000E-01    1.00000000E+00 
S    1    1.000000
   3.60000000E-02    1.00000000E+00 
P    1    1.000000
   7.50000000E-01    1.00000000E+00 

11    0
S    1    1.000000
   4.56324000E+03    1.96665000E-03 
S    1    1.000000
   6.82024000E+02    1.52306000E-02 
S    1    1.000000
   1.54973000E+02    7.61269000E-02 
S    1    1.000000
   4.44553000E+01    2.60801000E-01 
S    1    1.000000
   1.30290000E+01    6.16462000E-01 
S    1    1.000000
   1.82773000E+00    2.21006000E-01 
SP   3    1.000000
   2.09642000E+01    1.14660000E-01   4.02487000E-02 
   4.80331000E+00    9.19999000E-01   2.37594000E-01 
   1.45933000E+00   -3.03068000E-03   8.15854000E-01 
SP   1    1.000000
   4.83456000E-01    1.00000000E+00   1.00000000E+00 
SP   1    1.000000
   1.45585000E-01    1.00000000E+00   1.00000000E+00 
SP   1    1.000000
   4.38000000E-02    1.00000000E+00   1.00000000E+00 
SP   1    1.000000
   1.31927711E-02    1.00000000E+00   1.00000000E+00 
D    1    1.000000
   6.26000000E-01    1.00000000E+00 

12    0
S    6    1.000000
   1.05819000E+05    7.38000000E-04 
   1.58720000E+04    5.71800000E-03 
   3.61965000E+03    2.94950000E-02 
   1.03080000E+03    1.17286000E-01 
   3.39908000E+02    3.62949000E-01 
   1.24538000E+02    5.84149000E-01 
S    3    1.000000
   1.24538000E+02    1.34177000E-01 
   4.95135000E+01    6.24250000E-01 
   2.08056000E+01    2.91756000E-01 
S    1    1.000000
   6.58346000E+00    1.00000000E+00 
S    1    1.000000
   2.56468000E+00    1.00000000E+00 
S    1    1.000000
   5.59763000E-01    1.00000000E+00 
S    1    1.000000
   1.83273000E-01    1.00000000E+00 
P    5    1.000000
   5.89776000E+02    2.39100000E-03 
   1.39849000E+02    1.85040000E-02 
   4.51413000E+01    8.13770000E-02 
   1.68733000E+01    2.21552000E-01 
   6.74110000E+00    7.72569000E-01 
P    2    1.000000
   6.74110000E+00   -1.57224400E+00 
   2.77152000E+00    9.92389000E-01 
P    1    1.000000
   1.02387000E+00    1.00000000E+00 
P    1    1.000000
   3.81368000E-01    1.00000000E+00 
P    1    1.000000
   1.09437000E-01    1.00000000E+00 
SP   1    1.000000
   4.83000000E-02    1.00000000E+00   1.00000000E+00 
SP   1    1.000000
   1.45481928E-02    1.00000000E+00   1.00000000E+00 
D    1    1.000000
   7.50000000E-01    1.00000000E+00 

[MO]
Sym=X
Ene= 2.000838
Spin=Alpha
Occup=1
     1    4.167277701742e-13
     2    4.654443620850e-13
     3   -1.728627032686e-13
     4    4.514760465530e-12
     5    1.828888725923e-14
     6    1.067265281631e-03
     7    1.007904027931e-13
     8   -4.128785507313e-16
     9    1.732847777202e-15
    10    1.592901129193e-15
    11    6.936029416124e-15
    12    1.886457093586e-14
    13    7.698501465088e-14
    14    5.438814993283e-14
    15    6.762017861248e-13
    16    9.891613191375e-03
    17    1.872881299231e-12
    18   -5.803166020736e-13
    19    9.138705756083e-13
    20    1.695036218159e-02
    21    2.901849695540e-12
    22    1.782193593247e-12
    23    4.133606355602e-13
    24   -1.773947760283e-02
    25    2.413045894808e-12
    26    2.599703912453e-13
    27    2.643022200040e-12
    28    4.620163359193e-02
    29   -3.731394923923e-12
    30   -2.401170059205e-13
    31    6.232602319558e-12
    32   -1.104187801352e-01
    33    7.074739040675e-12
    34   -3.876925406201e-13
    35    2.146989634691e-15
    36    5.598384123490e-04
    37    2.293720515845e-13
    38    3.797298369859e-03
    39    4.299625682907e-17
    40   -7.384641152506e-16
    41   -2.078733483845e-15
    42   -8.914359415538e-15
    43    1.103853468796e-14
    44    8.705772532198e-14
    45   -6.295685199692e-14
    46   -4.861773391080e-13
    47    1.705222935378e-02
    48   -2.005682974783e-12
    49   -5.711522068060e-13
    50   -7.661797199461e-13
    51    2.923910694608e-02
    52   -3.084766755837e-12
    53    1.219830760015e-12
    54   -8.715614261512e-13
    55    2.780113194701e-02
    56   -2.501323976126e-12
    57   -3.509932336560e-12
    58    5.350095770362e-13
    59   -2.898337585037e-02
    60    3.349302536386e-12
    61   -2.395007040797e-12
    62   -2.278037147519e-12
    63    8.199631350391e-02
    64   -2.291040885668e-12
    65   -2.867097656016e-13
    66    1.720843665686e-13
    67   -4.164752784508e-04
    68    1.745491463030e-13
    69    3.256510876769e-03
    70    1.261133378097e-12
    71    1.896486047528e-12
    72   -9.234481998835e-14
    73    3.079067242445e-12
    74    1.128200522006e-13
    75    1.142827124343e-03
    76    9.312976446050e-15
    77   -1.626538751309e-15
    78   -1.522958493104e-14
    79   -7.048393974353e-14
    80   -2.493254094673e-13
    81   -5.805892724908e-13
    82   -2.276476071686e-13
    83   -9.155776870974e-13
    84    1.831597346282e-15
    85    2.521973296237e-02
    86    5.325209196057e-13
    87    6.782612876558e-13
    88   -3.013449418550e-14
    89    4.369455101876e-02
    90    8.235568467313e-13
    91    9.316797015829e-13
    92    7.009996122658e-13
    93    3.746641536790e-02
    94    1.533035960882e-12
    95   -1.441880042756e-11
    96   -4.985470298369e-12
    97    3.219815336083e-02
    98   -6.367401098573e-13
    99   -5.213711221945e-12
   100   -2.868091745743e-13
   101   -7.136123731295e-02
   102    1.812373460332e-12
   103   -4.163674635433e-13
   104    3.943985053043e-14
   105    2.819371331927e-03
   106    2.634796845075e-13
   107    2.404814734296e-14
   108   -6.349719555726e-13
   109   -1.126632249446e-12
   110   -3.990906388231e-13
   111    3.432984442427e-12
   112   -1.821557920800e-14
   113    2.310925056266e-03
   114   -1.418591817014e-14
   115   -7.054090176283e-17
   116   -2.914334400510e-15
   117   -1.120273436417e-14
   118   -3.480678807818e-14
   119   -1.199827619979e-13
   120   -9.355674066392e-14
   121   -8.573267248453e-14
   122    3.826331073716e-13
   123    1.705222935391e-02
   124   -1.981147475887e-12
   125    4.100789040111e-13
   126    5.438979492504e-13
   127    2.923910694632e-02
   128   -3.031577759172e-12
   129   -4.289682831146e-13
   130    1.277885711744e-12
   131    2.780113194725e-02
   132   -1.670036318299e-12
   133    2.886910759542e-12
   134   -7.906757786475e-12
   135   -2.898337585008e-02
   136   -2.712481684779e-12
   137   -3.282105821331e-12
   138   -1.954044997349e-14
   139    8.199631350703e-02
   140   -4.580123807301e-12
   141   -2.344063990000e-13
   142   -1.847063061512e-13
   143   -4.164752784244e-04
   144    1.847754843056e-13
   145   -3.256510876799e-03
   146    1.171669775861e-12
   147    1.527070919951e-12
   148    9.547037146174e-13
   149    6.069969891691e-12
   150   -1.492292568067e-13
   151    1.142827124334e-03
   152   -3.598613693086e-15
   153   -1.414909678230e-16
   154    3.234680237161e-16
   155    1.204170192945e-15
   156    1.257141491767e-15
   157    2.420866464339e-14
   158   -3.485342991769e-15
   159   -1.711393739575e-14
   160   -6.365096139815e-13
   161    9.891613191466e-03
   162    1.805199853816e-12
   163    2.435176357292e-13
   164   -9.309153716561e-13
   165    1.695036218170e-02
   166    2.753351441395e-12
   167   -1.403493579375e-12
   168   -1.861078013810e-14
   169   -1.773947760266e-02
   170    1.963466657525e-12
   171    1.143904750331e-11
   172   -3.086971151540e-13
   173    4.620163359167e-02
   174   -7.401453961910e-12
   175   -1.060510507605e-12
   176    2.728542458892e-12
   177   -1.104187801382e-01
   178    1.136456881209e-11
   179   -3.550709351708e-13
   180    2.651982569402e-14
   181    5.598384123138e-04
   182    2.284262419030e-13
   183   -3.797298369889e-03
   184    3.522437678118e-13
   185    2.673154079201e-13
   186    6.968123496767e-13
   187    1.590574395730e-12
   188   -6.883380642690e-14
   189    1.067265281612e-03
   190    8.487910982909e-14
   191   -1.038284499717e-15
   192   -4.142293513843e-16
   193   -1.182705965310e-14
   194   -2.793281684124e-14
   195   -7.081786272699e-14
   196    1.102767784022e-14
   197   -2.663881178174e-13
   198   -4.644498356198e-14
   199    4.212746558670e-02
   200   -2.369669229242e-12
   201    9.742342409837e-13
   202   -8.091094833448e-14
   203    7.742603997109e-02
   204   -4.172624984067e-12
   205   -8.813740935950e-13
   206    7.503329603101e-13
   207    4.767266634379e-02
   208   -4.218659853262e-12
   209    4.444082437089e-13
   210    1.181442001197e-13
   211   -6.873069546875e-02
   212    1.739913028108e-11
   213   -2.964573869133e-12
   214   -3.770050245733e-12
   215    1.234811885078e-01
   216   -2.351884432380e-11
   217   -8.144989224095e-13
   218    2.250189765701e-14
   219    2.198638171325e-02
   220    3.301891649139e-13
   221    2.083946259724e-14
   222   -2.954781951270e-13
   223   -5.107623337030e-13
   224    1.219624912152e-13
   225    2.544777936272e-13
   226   -1.925872313851e-13
   227    2.037254951555e-12
   228   -6.218793438886e-13
   229   -3.281242153681e-01
   230   -4.502708194329e-12
   231   -1.489038244522e-13
   232   -7.869777146010e-02
   233   -1.111718756862e-12
   234    5.414303980558e-13
   235    2.339036566690e-01
   236    2.932799379809e-12
   237    1.242712659962e-12
   238    5.681043428881e-01
   239    6.624163274185e-12
   240    7.447496975832e-13
   241    3.536294788960e-01
   242    1.924519314522e-12
   243   -1.322674381280e-11
   244    9.043732094025e-14
   245   -4.733467832445e-02
   246    2.271739171610e-12
   247    1.154885902100e-11
   248   -4.744160649368e-13
   249    1.938128650833e-02
   250    2.449388062761e-12
   251   -7.440902006295e-13
   252   -1.998924528585e-14
   253   -1.709763152837e-02
   254    4.102173086249e-14
   255    6.419521065797e-15
Sym=X
Ene= 2.000000
Spin=Alpha
Occup=1
     1    3.761623282629e-06
     2   -6.795106310135e-06
     3    3.369632170653e-05
     4    4.082722268821e-04
     5    5.065575461054e-06
     6   -5.677462274805e-15
     7    4.083483376000e-06
     8   -4.548142875859e-10
     9   -2.949969972338e-09
    10   -1.955803875671e-08
    11   -5.401582900463e-08
    12   -6.837133796468e-07
    13   -4.315273065815e-06
    14    1.475872662457e-06
    15   -7.877410944367e-07
    16    3.291024604747e-13
    17   -3.348405426734e-06
    18    1.251263917636e-05
    19    8.958766758923e-06
    20    6.067356154110e-13
    21    2.185718080018e-05
    22   -6.585077338067e-05
    23   -7.407825894645e-05
    24   -2.468843619378e-13
    25   -1.824652565185e-05
    26    5.540281514425e-04
    27    6.929000636098e-04
    28    3.025742315647e-12
    29    8.020258338676e-05
    30    1.863580326258e-04
    31    1.560714122730e-05
    32   -1.000429355758e-11
    33   -2.457556616124e-04
    34   -4.358426371592e-06
    35    1.258595426900e-05
    36   -1.242640653728e-13
    37   -8.031129733005e-07
    38    1.971775233346e-13
    39   -8.586371052268e-10
    40    7.500303879871e-09
    41   -6.276793884075e-08
    42    1.718341745218e-07
    43   -2.100747913660e-06
    44   -8.350810842396e-06
    45    4.754493843181e-06
    46    6.044433843027e-07
    47    6.991500180419e-13
    48   -1.692976759115e-06
    49    2.235713533803e-05
    50   -1.202631105997e-06
    51    1.024151915554e-12
    52    1.235400792966e-05
    53   -4.146053430028e-05
    54    1.174614050555e-05
    55    1.211834938321e-12
    56   -3.078968080629e-05
    57    1.168082780366e-03
    58    1.192355981014e-04
    59   -2.338759479790e-12
    60    4.417002128928e-04
    61    2.861401946209e-04
    62    9.056902877366e-05
    63    8.228557211029e-12
    64    5.757086754085e-05
    65    2.963378541765e-06
    66    2.111332776143e-06
    67   -4.985347789946e-14
    68   -4.764146563065e-06
    69    1.667628339733e-13
    70    1.346405944167e-06
    71    4.082463194591e-07
    72    9.090150617739e-06
    73    1.554572690534e-04
    74   -1.178581103778e-07
    75    4.308080593442e-14
    76    2.177315200114e-06
    77    3.335623396595e-09
    78    3.162897551817e-08
    79    1.158601514301e-07
    80    5.581921341831e-07
    81    7.842344216260e-08
    82   -4.603232882926e-06
    83    4.001103865944e-06
    84    1.025483481354e-13
    85    9.893398177983e-13
    86   -8.681017103583e-07
    87    1.384969254474e-05
    88    9.958156027878e-14
    89    1.655207771812e-12
    90    7.736712461261e-06
    91   -2.739740801206e-05
    92   -4.063752434576e-14
    93    1.410600619286e-12
    94    7.696302520395e-07
    95   -4.417971054754e-04
    96    4.190878725265e-12
    97    2.156671869384e-12
    98   -2.802203926394e-04
    99    2.209341437662e-04
   100   -1.374710479272e-14
   101   -7.123873929064e-12
   102    7.726472426255e-05
   103   -3.320800633073e-06
   104    1.721400862203e-14
   105    1.204232299149e-13
   106    4.873392310134e-07
   107    1.519681435493e-16
   108    1.056139707348e-06
   109    6.742084850304e-06
   110   -1.106830912264e-05
   111   -8.281313045956e-05
   112    1.457171202952e-14
   113    9.529063257344e-14
   114    1.848932888606e-06
   115   -8.586368321703e-10
   116    7.500311936272e-09
   117   -6.276792260662e-08
   118    1.718342491902e-07
   119   -2.100747743760e-06
   120   -8.350810750595e-06
   121    4.754494214033e-06
   122   -6.044440282695e-07
   123    6.991954311290e-13
   124   -1.692976445183e-06
   125    2.235713441597e-05
   126    1.202630191431e-06
   127    1.027035884368e-12
   128    1.235400847509e-05
   129   -4.146053238249e-05
   130   -1.174614299882e-05
   131    1.212278341465e-12
   132   -3.078967890847e-05
   133    1.168082799285e-03
   134   -1.192356021412e-04
   135   -2.337261126485e-12
   136    4.417002251473e-04
   137    2.861401962448e-04
   138   -9.056902897086e-05
   139    8.223162205490e-12
   140    5.757086771036e-05
   141    2.963378602224e-06
   142   -2.111332666713e-06
   143   -4.912280013635e-14
   144   -4.764146616828e-06
   145   -1.665529245920e-13
   146    1.346405109167e-06
   147    4.082451945328e-07
   148    9.090151679360e-06
   149    1.554572737533e-04
   150    1.178581768440e-07
   151    4.296544208412e-14
   152    2.177315104895e-06
   153   -4.548154267845e-10
   154   -2.949986233966e-09
   155   -1.955807625719e-08
   156   -5.401597990175e-08
   157   -6.837137811727e-07
   158   -4.315273280820e-06
   159    1.475871861995e-06
   160    7.877414592412e-07
   161    3.314509770404e-13
   162   -3.348404670477e-06
   163    1.251264183828e-05
   164   -8.958766690914e-06
   165    6.077272914350e-13
   166    2.185718157025e-05
   167   -6.585078294715e-05
   168    7.407826323756e-05
   169   -2.438844821455e-13
   170   -1.824652606043e-05
   171    5.540281212013e-04
   172   -6.929000590793e-04
   173    3.023758447387e-12
   174    8.020259260930e-05
   175    1.863580316411e-04
   176   -1.560714106185e-05
   177   -9.997187750893e-12
   178   -2.457556603803e-04
   179   -4.358426302208e-06
   180   -1.258595444788e-05
   181   -1.246608637930e-13
   182   -8.031127595863e-07
   183   -1.976201209004e-13
   184    3.761624189483e-06
   185   -6.795104952840e-06
   186    3.369632100553e-05
   187    4.082722234500e-04
   188   -5.065575798678e-06
   189   -5.480299286205e-15
   190    4.083483395105e-06
   191    6.165572917663e-09
   192    8.012585073673e-08
   193    1.704419539858e-07
   194    1.487763540242e-06
   195   -1.382201161389e-06
   196   -6.831294794514e-06
   197    1.111608321322e-05
   198    9.598398599980e-13
   199    1.224236741982e-12
   200   -2.043408101952e-05
   201   -1.983627130523e-05
   202    9.812007450201e-13
   203    3.359117183332e-12
   204    6.996662195100e-05
   205    8.974210009678e-05
   206    5.414858423021e-12
   207   -1.086756778798e-12
   208   -2.580898961274e-04
   209   -9.202435147308e-04
   210   -7.556783459665e-13
   211   -1.944993864835e-12
   212    2.492609115585e-03
   213    2.014682134020e-04
   214    2.667918905901e-13
   215    8.804315923423e-12
   216    1.277324867568e-03
   217    3.412425994810e-05
   218    5.248143033291e-13
   219    1.151360095350e-12
   220   -1.043533562321e-05
   221    1.821366007702e-16
   222   -4.075622560255e-01
   223   -6.435633937977e-01
   224   -2.870412594468e-02
   225   -1.873043495174e-02
   226   -1.620296854616e-03
   227    9.348495960633e-04
   228   -3.509653701833e-09
   229    1.139859599935e-08
   230   -1.957046699797e-03
   231   -9.325091020467e-10
   232    3.029733928224e-09
   233   -4.595093029054e-04
   234   -1.331286547816e-10
   235    4.642218053148e-10
   236   -1.623248781883e-04
   237    2.417117799441e-11
   238   -4.867533395432e-12
   239    9.166072417953e-05
   240    5.599656133370e-12
   241    2.530882650057e-11
   242   -1.907047749093e-04
   243   -3.095715990739e-03
   244    1.129270823908e-12
   245   -9.924915192617e-12
   246    9.464132363906e-04
   247   -1.723431548796e-03
   248   -5.453397493564e-13
   249    3.809980971099e-12
   250    4.894700512071e-05
   251   -2.089346387059e-05
   252    6.122566397948e-13
   253   -3.848156188023e-12
   254    5.556059282141e-07
   255   -1.226938906112e-17
Sym=X
Ene= 2.000000
Spin=Alpha
Occup=1
     1   -4.558376130464e-12
     2    8.012704231375e-12
     3   -2.356051656283e-11
     4   -3.438761217788e-10
     5   -3.959507101186e-12
     6    5.734522698245e-07
     7   -3.954913986705e-12
     8    1.652911072547e-15
     9    1.397786005253e-14
    10    8.438492884755e-14
    11    2.240529908101e-13
    12    1.281419438172e-12
    13    4.162097831517e-12
    14   -4.163880632132e-13
    15    1.027602745421e-12
    16   -3.572980003175e-05
    17    1.721398545832e-12
    18   -1.488836688506e-11
    19   -4.465600799778e-12
    20   -6.568988034238e-05
    21   -1.796332581446e-11
    22    9.208214285837e-11
    23    8.216818968165e-11
    24    2.766395011122e-05
    25    2.471133604290e-12
    26   -3.542429444442e-10
    27   -5.637117512709e-10
    28   -3.239706505177e-04
    29   -6.415802012216e-11
    30   -1.474992005761e-10
    31   -3.533623708842e-12
    32    1.020134083385e-03
    33    2.244477365793e-10
    34    3.473687142192e-12
    35   -9.183004895534e-12
    36    1.333298612598e-05
    37    6.316273113650e-13
    38   -2.148298790224e-05
    39    1.243680641363e-15
    40   -1.003421653537e-15
    41    4.075169258029e-14
    42   -3.067612015735e-14
    43    1.408558874658e-12
    44    6.112340789739e-12
    45   -3.216280798760e-12
    46   -7.018993852212e-13
    47   -7.605895390239e-05
    48    1.041796301920e-12
    49   -1.635593125796e-11
    50    2.642947587972e-13
    51   -1.119777852957e-04
    52   -1.118722380754e-11
    53    1.067662860236e-11
    54   -1.834782701116e-11
    55   -1.314108641663e-04
    56    1.590235498145e-11
    57   -1.023365419501e-09
    58   -1.045301478740e-10
    59    2.487116377771e-04
    60   -3.741012396913e-10
    61   -2.423058062171e-10
    62   -8.382446596812e-11
    63   -8.253746703565e-04
    64   -4.903592215476e-11
    65   -2.428284327909e-12
    66   -1.334575775518e-12
    67    5.417410980850e-06
    68    3.984404467864e-12
    69   -1.813806667855e-05
    70   -4.753751539115e-13
    71   -6.579616584396e-13
    72   -8.514418909860e-12
    73   -1.273075849677e-10
    74   -6.441781678549e-14
    75   -4.711800908657e-06
    76   -1.623407399664e-12
    77   -8.837975423378e-14
    78   -6.873386975935e-13
    79   -3.407982721820e-12
    80   -1.179301960662e-11
    81   -2.688226087438e-11
    82   -5.858037504430e-12
    83   -3.931639119397e-11
    84   -1.849673579467e-13
    85   -1.080288574072e-04
    86    3.666537807272e-13
    87   -1.187962519498e-11
    88   -5.158258086898e-13
    89   -1.806469544343e-04
    90   -6.266157340638e-12
    91    3.680098470894e-11
    92    7.374797412917e-13
    93   -1.546953555892e-04
    94    4.624057501091e-12
    95    2.856481223970e-10
    96   -1.846876147029e-11
    97   -2.293701270215e-04
    98    2.085508802494e-10
    99   -1.929469308701e-10
   100    8.914550695092e-13
   101    7.044905083540e-04
   102   -7.062026376823e-11
   103    2.650046553871e-12
   104   -6.144448794071e-14
   105   -1.312771936616e-05
   106   -2.696354058703e-13
   107    5.954650701701e-16
   108   -6.483802544824e-13
   109   -4.352507803566e-12
   110    8.018186803524e-12
   111    5.608368004990e-11
   112   -2.133722742578e-14
   113   -1.037658780900e-05
   114   -1.461462843193e-12
   115    1.674083329755e-15
   116    1.056695185221e-14
   117    9.620981802302e-14
   118    1.677184253108e-13
   119    1.871725887774e-12
   120    6.357661936301e-12
   121   -2.284657497744e-12
   122    1.061194523259e-13
   123   -7.605895389774e-05
   124    1.990978436719e-12
   125   -1.847807966694e-11
   126   -1.044254031346e-12
   127   -1.119777852852e-04
   128   -9.748371798270e-12
   129    1.590575315838e-11
   130    1.328153050073e-11
   131   -1.314108641597e-04
   132    2.366620841677e-11
   133   -9.345017466953e-10
   134    5.406449382642e-11
   135    2.487116377755e-04
   136   -3.833039541716e-10
   137   -2.357711386730e-10
   138    7.897424876229e-11
   139   -8.253746703117e-04
   140   -4.962763422153e-11
   141   -2.302520763581e-12
   142    1.489312271289e-12
   143    5.417410981782e-06
   144    3.865576203049e-12
   145    1.813806667862e-05
   146   -1.836062390611e-12
   147   -1.988201851128e-12
   148   -4.808691488881e-12
   149   -1.099759034059e-10
   150    8.846949953415e-14
   151   -4.711800908305e-06
   152   -1.839884212249e-12
   153   -1.327331316102e-15
   154   -1.448791844937e-14
   155   -5.041557925112e-14
   156   -2.339917055602e-13
   157    5.073100408448e-14
   158    3.545898711358e-12
   159   -2.881798133739e-12
   160    3.908388805078e-14
   161   -3.572980002340e-05
   162    3.861496797176e-12
   163   -7.087454087312e-12
   164    4.638124654471e-12
   165   -6.568988032854e-05
   166   -1.591062601772e-11
   167    6.363740109826e-11
   168   -7.028740639426e-11
   169    2.766395012055e-05
   170    2.771436451447e-12
   171   -5.300137730571e-10
   172    6.255899186964e-10
   173   -3.239706505127e-04
   174   -9.068933010713e-11
   175   -1.529374134886e-10
   176    8.712503822384e-12
   177    1.020134083342e-03
   178    2.278290450977e-10
   179    3.758491904848e-12
   180    8.463861015422e-12
   181    1.333298612539e-05
   182    1.237669201994e-12
   183    2.148298790155e-05
   184   -2.012595550957e-12
   185    1.189152103740e-11
   186   -2.629754117811e-11
   187   -3.599697078674e-10
   188    2.927025388102e-12
   189    5.734522707330e-07
   190   -3.920674786320e-12
   191   -1.121867626749e-14
   192   -9.424632256213e-14
   193   -4.280703664012e-13
   194   -1.661217997498e-12
   195   -2.254350139040e-12
   196    1.285467795903e-12
   197   -9.923196266206e-12
   198    2.863590673936e-12
   199   -1.344967243009e-04
   200    1.883903101169e-11
   201    2.964781335600e-11
   202    2.878387465924e-12
   203   -3.672906623821e-04
   204   -4.563490656887e-11
   205   -9.534483239274e-11