[Molden Format]
[Atoms] (Angs)
  H      1    1     -2.14003202      0.00000000      0.38146042
  C      2    6     -1.21205832      0.00000000     -0.17180643
  C      3    6     -1.20429565      0.00000000     -1.56369320
  H      4    1     -2.14371879      0.00000000     -2.09923439
  C      5    6     -0.00000000      0.00000000     -2.26269040
  H      6    1     -0.00000000      0.00000000     -3.34354440
  C      7    6      1.20429565      0.00000000     -1.56369320
  H      8    1      2.14371879      0.00000000     -2.09923439
  C      9    6      1.21205832     -0.00000000     -0.17180643
  H     10    1      2.14003202     -0.00000000      0.38146042
  C     11    6      0.00000000     -0.00000000      0.51110416
 Cl     12   17      0.00000000     -0.00000000      2.24203561
[GTO]
1    0
S    3    1.000000
   3.38650000E+01    2.54938000E-02 
   5.09479000E+00    1.90373000E-01 
   1.15879000E+00    8.52161000E-01 
S    1    1.000000
   3.25840000E-01    1.00000000E+00 
S    1    1.000000
   1.02741000E-01    1.00000000E+00 
S    1    1.000000
   3.60000000E-02    1.00000000E+00 
P    1    1.000000
   7.50000000E-01    1.00000000E+00 

2    0
S    1    1.000000
   4.56324000E+03    1.96665000E-03 
S    1    1.000000
   6.82024000E+02    1.52306000E-02 
S    1    1.000000
   1.54973000E+02    7.61269000E-02 
S    1    1.000000
   4.44553000E+01    2.60801000E-01 
S    1    1.000000
   1.30290000E+01    6.16462000E-01 
S    1    1.000000
   1.82773000E+00    2.21006000E-01 
SP   3    1.000000
   2.09642000E+01    1.14660000E-01   4.02487000E-02 
   4.80331000E+00    9.19999000E-01   2.37594000E-01 
   1.45933000E+00   -3.03068000E-03   8.15854000E-01 
SP   1    1.000000
   4.83456000E-01    1.00000000E+00   1.00000000E+00 
SP   1    1.000000
   1.45585000E-01    1.00000000E+00   1.00000000E+00 
SP   1    1.000000
   4.38000000E-02    1.00000000E+00   1.00000000E+00 
SP   1    1.000000
   1.31927711E-02    1.00000000E+00   1.00000000E+00 
D    1    1.000000
   6.26000000E-01    1.00000000E+00 

3    0
S    1    1.000000
   4.56324000E+03    1.96665000E-03 
S    1    1.000000
   6.82024000E+02    1.52306000E-02 
S    1    1.000000
   1.54973000E+02    7.61269000E-02 
S    1    1.000000
   4.44553000E+01    2.60801000E-01 
S    1    1.000000
   1.30290000E+01    6.16462000E-01 
S    1    1.000000
   1.82773000E+00    2.21006000E-01 
SP   3    1.000000
   2.09642000E+01    1.14660000E-01   4.02487000E-02 
   4.80331000E+00    9.19999000E-01   2.37594000E-01 
   1.45933000E+00   -3.03068000E-03   8.15854000E-01 
SP   1    1.000000
   4.83456000E-01    1.00000000E+00   1.00000000E+00 
SP   1    1.000000
   1.45585000E-01    1.00000000E+00   1.00000000E+00 
SP   1    1.000000
   4.38000000E-02    1.00000000E+00   1.00000000E+00 
SP   1    1.000000
   1.31927711E-02    1.00000000E+00   1.00000000E+00 
D    1    1.000000
   6.26000000E-01    1.00000000E+00 

4    0
S    3    1.000000
   3.38650000E+01    2.54938000E-02 
   5.09479000E+00    1.90373000E-01 
   1.15879000E+00    8.52161000E-01 
S    1    1.000000
   3.25840000E-01    1.00000000E+00 
S    1    1.000000
   1.02741000E-01    1.00000000E+00 
S    1    1.000000
   3.60000000E-02    1.00000000E+00 
P    1    1.000000
   7.50000000E-01    1.00000000E+00 

5    0
S    1    1.000000
   4.56324000E+03    1.96665000E-03 
S    1    1.000000
   6.82024000E+02    1.52306000E-02 
S    1    1.000000
   1.54973000E+02    7.61269000E-02 
S    1    1.000000
   4.44553000E+01    2.60801000E-01 
S    1    1.000000
   1.30290000E+01    6.16462000E-01 
S    1    1.000000
   1.82773000E+00    2.21006000E-01 
SP   3    1.000000
   2.09642000E+01    1.14660000E-01   4.02487000E-02 
   4.80331000E+00    9.19999000E-01   2.37594000E-01 
   1.45933000E+00   -3.03068000E-03   8.15854000E-01 
SP   1    1.000000
   4.83456000E-01    1.00000000E+00   1.00000000E+00 
SP   1    1.000000
   1.45585000E-01    1.00000000E+00   1.00000000E+00 
SP   1    1.000000
   4.38000000E-02    1.00000000E+00   1.00000000E+00 
SP   1    1.000000
   1.31927711E-02    1.00000000E+00   1.00000000E+00 
D    1    1.000000
   6.26000000E-01    1.00000000E+00 

6    0
S    3    1.000000
   3.38650000E+01    2.54938000E-02 
   5.09479000E+00    1.90373000E-01 
   1.15879000E+00    8.52161000E-01 
S    1    1.000000
   3.25840000E-01    1.00000000E+00 
S    1    1.000000
   1.02741000E-01    1.00000000E+00 
S    1    1.000000
   3.60000000E-02    1.00000000E+00 
P    1    1.000000
   7.50000000E-01    1.00000000E+00 

7    0
S    1    1.000000
   4.56324000E+03    1.96665000E-03 
S    1    1.000000
   6.82024000E+02    1.52306000E-02 
S    1    1.000000
   1.54973000E+02    7.61269000E-02 
S    1    1.000000
   4.44553000E+01    2.60801000E-01 
S    1    1.000000
   1.30290000E+01    6.16462000E-01 
S    1    1.000000
   1.82773000E+00    2.21006000E-01 
SP   3    1.000000
   2.09642000E+01    1.14660000E-01   4.02487000E-02 
   4.80331000E+00    9.19999000E-01   2.37594000E-01 
   1.45933000E+00   -3.03068000E-03   8.15854000E-01 
SP   1    1.000000
   4.83456000E-01    1.00000000E+00   1.00000000E+00 
SP   1    1.000000
   1.45585000E-01    1.00000000E+00   1.00000000E+00 
SP   1    1.000000
   4.38000000E-02    1.00000000E+00   1.00000000E+00 
SP   1    1.000000
   1.31927711E-02    1.00000000E+00   1.00000000E+00 
D    1    1.000000
   6.26000000E-01    1.00000000E+00 

8    0
S    3    1.000000
   3.38650000E+01    2.54938000E-02 
   5.09479000E+00    1.90373000E-01 
   1.15879000E+00    8.52161000E-01 
S    1    1.000000
   3.25840000E-01    1.00000000E+00 
S    1    1.000000
   1.02741000E-01    1.00000000E+00 
S    1    1.000000
   3.60000000E-02    1.00000000E+00 
P    1    1.000000
   7.50000000E-01    1.00000000E+00 

9    0
S    1    1.000000
   4.56324000E+03    1.96665000E-03 
S    1    1.000000
   6.82024000E+02    1.52306000E-02 
S    1    1.000000
   1.54973000E+02    7.61269000E-02 
S    1    1.000000
   4.44553000E+01    2.60801000E-01 
S    1    1.000000
   1.30290000E+01    6.16462000E-01 
S    1    1.000000
   1.82773000E+00    2.21006000E-01 
SP   3    1.000000
   2.09642000E+01    1.14660000E-01   4.02487000E-02 
   4.80331000E+00    9.19999000E-01   2.37594000E-01 
   1.45933000E+00   -3.03068000E-03   8.15854000E-01 
SP   1    1.000000
   4.83456000E-01    1.00000000E+00   1.00000000E+00 
SP   1    1.000000
   1.45585000E-01    1.00000000E+00   1.00000000E+00 
SP   1    1.000000
   4.38000000E-02    1.00000000E+00   1.00000000E+00 
SP   1    1.000000
   1.31927711E-02    1.00000000E+00   1.00000000E+00 
D    1    1.000000
   6.26000000E-01    1.00000000E+00 

10    0
S    3    1.000000
   3.38650000E+01    2.54938000E-02 
   5.09479000E+00    1.90373000E-01 
   1.15879000E+00    8.52161000E-01 
S    1    1.000000
   3.25840000E-01    1.00000000E+00 
S    1    1.000000
   1.02741000E-01    1.00000000E+00 
S    1    1.000000
   3.60000000E-02    1.00000000E+00 
P    1    1.000000
   7.50000000E-01    1.00000000E+00 

11    0
S    1    1.000000
   4.56324000E+03    1.96665000E-03 
S    1    1.000000
   6.82024000E+02    1.52306000E-02 
S    1    1.000000
   1.54973000E+02    7.61269000E-02 
S    1    1.000000
   4.44553000E+01    2.60801000E-01 
S    1    1.000000
   1.30290000E+01    6.16462000E-01 
S    1    1.000000
   1.82773000E+00    2.21006000E-01 
SP   3    1.000000
   2.09642000E+01    1.14660000E-01   4.02487000E-02 
   4.80331000E+00    9.19999000E-01   2.37594000E-01 
   1.45933000E+00   -3.03068000E-03   8.15854000E-01 
SP   1    1.000000
   4.83456000E-01    1.00000000E+00   1.00000000E+00 
SP   1    1.000000
   1.45585000E-01    1.00000000E+00   1.00000000E+00 
SP   1    1.000000
   4.38000000E-02    1.00000000E+00   1.00000000E+00 
SP   1    1.000000
   1.31927711E-02    1.00000000E+00   1.00000000E+00 
D    1    1.000000
   6.26000000E-01    1.00000000E+00 

12    0
S    6    1.000000
   1.05819000E+05    7.38000000E-04 
   1.58720000E+04    5.71800000E-03 
   3.61965000E+03    2.94950000E-02 
   1.03080000E+03    1.17286000E-01 
   3.39908000E+02    3.62949000E-01 
   1.24538000E+02    5.84149000E-01 
S    3    1.000000
   1.24538000E+02    1.34177000E-01 
   4.95135000E+01    6.24250000E-01 
   2.08056000E+01    2.91756000E-01 
S    1    1.000000
   6.58346000E+00    1.00000000E+00 
S    1    1.000000
   2.56468000E+00    1.00000000E+00 
S    1    1.000000
   5.59763000E-01    1.00000000E+00 
S    1    1.000000
   1.83273000E-01    1.00000000E+00 
P    5    1.000000
   5.89776000E+02    2.39100000E-03 
   1.39849000E+02    1.85040000E-02 
   4.51413000E+01    8.13770000E-02 
   1.68733000E+01    2.21552000E-01 
   6.74110000E+00    7.72569000E-01 
P    2    1.000000
   6.74110000E+00   -1.57224400E+00 
   2.77152000E+00    9.92389000E-01 
P    1    1.000000
   1.02387000E+00    1.00000000E+00 
P    1    1.000000
   3.81368000E-01    1.00000000E+00 
P    1    1.000000
   1.09437000E-01    1.00000000E+00 
SP   1    1.000000
   4.83000000E-02    1.00000000E+00   1.00000000E+00 
SP   1    1.000000
   1.45481928E-02    1.00000000E+00   1.00000000E+00 
D    1    1.000000
   7.50000000E-01    1.00000000E+00 

[MO]
Sym=X
Ene= 2.000249
Spin=Alpha
Occup=1
     1   -5.078678144284e-03
     2   -6.690394778644e-03
     3    9.154932028808e-03
     4    6.543561030875e-02
     5    1.262596220779e-03
     6    1.801787048621e-13
     7   -1.066335069437e-03
     8    9.516955848673e-06
     9    7.204760409825e-05
    10    3.808402562767e-04
    11    1.243212687408e-03
    12    3.012958582355e-03
    13    1.057515703313e-03
    14    8.332482077961e-03
    15   -5.026837496746e-04
    16    2.136552809224e-12
    17    1.282015078427e-02
    18   -2.415840382339e-02
    19    3.960268796913e-03
    20    3.839234785524e-12
    21    2.064573425482e-02
    22   -3.109715195154e-02
    23    1.525572277745e-03
    24    1.558064486571e-12
    25   -2.039376940174e-02
    26    2.595139325312e-01
    27    1.199161722943e-01
    28    1.965031661033e-12
    29   -4.531616391393e-02
    30    2.100866402575e-02
    31   -1.774921339741e-03
    32   -3.904957512936e-12
    33   -4.316289405605e-02
    34    3.954398479673e-03
    35    9.813439322450e-03
    36   -4.785301209690e-14
    37   -1.589745568203e-03
    38    4.531760009569e-13
    39    9.403273987658e-06
    40    7.115990725710e-05
    41    3.763893550668e-04
    42    1.246437953460e-03
    43    3.225453134802e-03
    44    9.268019695722e-04
    45    7.292176216652e-03
    46    7.989578092283e-04
    47    1.939173226822e-12
    48   -7.586090548067e-03
    49   -2.122139083541e-02
    50    1.186145451660e-03
    51    3.346287270107e-12
    52   -1.178096285509e-02
    53    2.967930501044e-03
    54    1.999829024512e-02
    55    2.623793695274e-12
    56    9.608069678489e-03
    57    2.842899966637e-01
    58    1.203299637867e-01
    59   -1.086017183234e-12
    60    6.841745350784e-02
    61    3.473386170985e-02
    62    1.667302505441e-02
    63    2.517266512520e-12
    64    1.406984195251e-02
    65   -3.127836481444e-03
    66   -7.967678801370e-04
    67    1.604537307020e-13
    68   -1.522611653220e-04
    69    2.906736109282e-13
    70   -2.978755390119e-03
    71   -2.219725175786e-03
    72    1.680194857515e-02
    73    7.414191422133e-02
    74   -2.060645307397e-04
    75    1.319270678612e-13
    76   -1.622317061209e-04
    77    2.351530172358e-07
    78    1.975536381913e-06
    79    7.878326176933e-06
    80    3.337644478893e-05
    81    7.042278722094e-05
    82   -2.924561074380e-05
    83   -2.950592079969e-04
    84    1.646253706422e-12
    85    2.065738999444e-12
    86    4.940667590173e-04
    87    3.826048620541e-03
    88    4.605825883943e-12
    89    3.616779146662e-12
    90   -6.607531817637e-05
    91   -1.769193070053e-02
    92   -3.184450184641e-11
    93    2.629714155597e-12
    94   -1.400932790557e-02
    95   -4.581041666425e-01
    96   -1.767583736424e-09
    97    1.174880779760e-12
    98   -1.385021641229e-01
    99   -1.479416898492e-03
   100   -5.411834342172e-11
   101   -2.085066986442e-12
   102   -3.981348315922e-03
   103   -1.456676960745e-03
   104    1.907408205346e-12
   105    3.222288026674e-13
   106    1.088199693918e-04
   107    2.517269692658e-15
   108   -5.706850901549e-06
   109   -2.656785680232e-03
   110   -5.286829674163e-03
   111   -4.353157475770e-02
   112   -6.242240652585e-13
   113    1.673587588947e-13
   114    1.948689836950e-04
   115    9.403274007058e-06
   116    7.115990740881e-05
   117    3.763893558120e-04
   118    1.246437956059e-03
   119    3.225453140861e-03
   120    9.268019718243e-04
   121    7.292176222720e-03
   122   -7.989578169353e-04
   123    1.958962536035e-12
   124   -7.586090546096e-03
   125   -2.122139082561e-02
   126   -1.186145461743e-03
   127    3.368234757880e-12
   128   -1.178096285675e-02
   129    2.967930595630e-03
   130   -1.999829034118e-02
   131    2.650695076026e-12
   132    9.608069779753e-03
   133    2.842900003140e-01
   134   -1.203299670435e-01
   135   -1.085897715998e-12
   136    6.841745137185e-02
   137    3.473386193777e-02
   138   -1.667302510273e-02
   139    2.554093109930e-12
   140    1.406984182202e-02
   141   -3.127836482756e-03
   142    7.967678809633e-04
   143    1.611738615248e-13
   144   -1.522611650573e-04
   145   -2.911742217404e-13
   146   -2.978755388336e-03
   147   -2.219725170093e-03
   148    1.680194877161e-02
   149    7.414191497838e-02
   150    2.060645312082e-04
   151    1.347604767294e-13
   152   -1.622317060939e-04
   153    9.516955881139e-06
   154    7.204760435392e-05
   155    3.808402575419e-04
   156    1.243212691767e-03
   157    3.012958592729e-03
   158    1.057515707610e-03
   159    8.332482090241e-03
   160    5.026837589254e-04
   161    2.145045857798e-12
   162    1.282015078940e-02
   163   -2.415840381987e-02
   164   -3.960268785591e-03
   165    3.860540909640e-12
   166    2.064573425973e-02
   167   -3.109715198346e-02
   168   -1.525572181151e-03
   169    1.570759471471e-12
   170   -2.039376928839e-02
   171    2.595139254263e-01
   172   -1.199161682802e-01
   173    1.982782217041e-12
   174   -4.531616665731e-02
   175    2.100866379701e-02
   176    1.774921376454e-03
   177   -3.940741552404e-12
   178   -4.316289392682e-02
   179    3.954398480914e-03
   180   -9.813439320950e-03
   181   -5.149223542591e-14
   182   -1.589745568085e-03
   183   -4.528931536773e-13
   184   -5.078678139925e-03
   185   -6.690394772939e-03
   186    9.154931761769e-03
   187    6.543560933595e-02
   188   -1.262596221637e-03
   189    1.823914736613e-13
   190   -1.066335070522e-03
   191   -9.576886822397e-05
   192   -7.208012409260e-04
   193   -3.836068340576e-03
   194   -1.244293928966e-02
   195   -3.198128317952e-02
   196   -2.046914833268e-02
   197   -7.573540063472e-02
   198   -1.121832965693e-12
   199    3.905036487313e-12
   200    9.432928014290e-02
   201    2.232805376678e-01
   202   -2.210852151405e-12
   203    6.939184627298e-12
   204    1.805634705920e-01
   205    2.521339772716e-01
   206    1.441077970038e-11
   207    5.080209085999e-12
   208    1.799412194361e-01
   209   -4.218320206149e-01
   210    2.976600134346e-09
   211   -2.985891685792e-12
   212    5.092889737524e-01
   213   -3.212262553196e-04
   214    9.027561997803e-11
   215    5.028581728608e-12
   216    1.553589377603e-01
   217    2.419653346987e-02
   218    1.006380176196e-12
   219    6.610235451328e-13
   220   -3.588332892466e-04
   221    1.935928264058e-15
   222   -1.634366008936e-02
   223   -4.772540842175e-02
   224    9.790956791628e-02
   225    1.844229867883e-01
   226   -2.741553769728e-01
   227   -3.940400032304e-01
   228    1.211717573681e-11
   229   -5.478616212312e-12
   230    2.594901838145e-01
   231    3.055232341116e-12
   232   -1.107308575822e-12
   233    6.373046091761e-02
   234   -5.644535489935e-12
   235    9.814854778388e-12
   236   -1.809812345807e-01
   237   -1.045366679454e-11
   238    2.310185727084e-11
   239   -4.076958028041e-01
   240   -3.045014763241e-11
   241    1.357298991684e-11
   242   -9.276463069183e-02
   243   -5.239782713275e-01
   244   -7.643490894977e-11
   245   -1.655514297254e-12
   246    1.225719242830e-01
   247   -1.510353914136e-01
   248   -1.986608610307e-11
   249    3.961396875973e-13
   250   -3.539247137015e-03
   251    5.452987109423e-02
   252   -1.678104895006e-12
   253   -1.018264054149e-12
   254   -1.019875412873e-03
   255    3.095656114671e-15
Sym=X
Ene= 2.000217
Spin=Alpha
Occup=1
     1    1.574319418231e-13
     2    2.455335512824e-14
     3   -4.540818782850e-13
     4    1.146316385723e-12
     5   -9.374061176571e-14
     6    4.506798943329e-04
     7    1.022949569614e-13
     8   -4.461531284848e-15
     9   -2.914515159248e-14
    10   -1.545028208197e-13
    11   -5.235634876016e-13
    12   -1.244013462374e-12
    13   -3.688062282916e-13
    14   -1.904321347544e-12
    15    9.082393537455e-13
    16   -4.370371096694e-04
    17    5.369838084150e-13
    18    8.418933856775e-13
    19    1.057167276996e-12
    20    1.810979861688e-03
    21    8.183812334676e-13
    22    5.700858591785e-12
    23    1.934581165538e-12
    24   -2.671050638553e-02
    25    2.900873408928e-12
    26   -2.699241116439e-11
    27   -9.085959098496e-12
    28    4.402698110190e-02
    29   -1.167491966934e-11
    30   -1.490848173175e-12
    31    5.371922297861e-12
    32   -1.099231577132e-01
    33    9.793439980591e-12
    34   -3.872297110442e-13
    35   -3.648568046654e-13
    36    2.768568373726e-03
    37    2.029348681656e-13
    38    2.727280150588e-03
    39   -2.213812570134e-16
    40   -2.832394708847e-15
    41   -1.263544167982e-14
    42   -4.425783315331e-14
    43   -8.237342309470e-14
    44    8.539121477802e-14
    45   -3.230736319397e-13
    46   -4.212745117731e-13
    47   -1.542004164501e-03
    48   -7.743606324530e-13
    49    3.536424922221e-13
    50   -6.381771836639e-13
    51   -2.157511666380e-03
    52   -1.285778266154e-12
    53    6.540774750669e-13
    54   -1.872756563914e-12
    55    2.462804819942e-03
    56   -1.959010725904e-12
    57   -1.574633476190e-11
    58    3.107258027372e-13
    59   -2.967352436209e-02
    60   -4.302105573947e-12
    61   -4.148798270611e-12
    62   -2.218021711180e-12
    63    8.138150025349e-02
    64   -3.333389018769e-12
    65    1.037398293813e-14
    66    1.754712074945e-13
    67   -9.853753517415e-04
    68    8.962345391590e-14
    69    3.832412392292e-04
    70    8.867656559874e-13
    71    1.127860681043e-12
    72   -9.779125312736e-13
    73    9.990432736021e-13
    74    4.361574608941e-14
    75   -2.574665944091e-04
    76    2.448721605167e-14
    77   -3.436865997840e-16
    78   -5.355313768561e-15
    79   -2.264418670085e-14
    80   -8.231753326937e-14
    81   -1.879408191005e-13
    82   -7.201523103271e-14
    83   -3.877889143206e-13
    84   -1.871933198366e-14
    85    4.164308635523e-03
    86   -2.383618788158e-13
    87    5.299668869385e-13
    88   -1.029090865147e-13
    89    7.333024072343e-03
    90   -3.511495689301e-13
    91    1.730966292137e-12
    92    4.457446009826e-13
    93    7.628314030853e-03
    94    1.009809144618e-12
    95    1.325333218380e-12
    96    4.795511360757e-13
    97    2.980848630935e-02
    98    4.251459782811e-12
    99   -5.754105637057e-12
   100   -9.601259417173e-13
   101   -7.084401574746e-02
   102    2.018445177317e-12
   103   -1.225817361715e-13
   104    1.577582114597e-14
   105   -3.985374899451e-04
   106    1.216794055021e-13
   107    1.447423741472e-14
   108    1.158533720994e-13
   109    1.301037328967e-13
   110    1.761681263038e-13
   111    5.243286677819e-12
   112   -1.317542239382e-14
   113    6.085875301743e-04
   114    5.014888735478e-14
   115    3.804592921119e-18
   116   -2.641630717933e-15
   117   -9.591122194957e-15
   118   -2.933200534831e-14
   119   -1.135589061977e-13
   120   -7.697579335356e-14
   121   -1.036148719225e-13
   122    3.758816079473e-13
   123   -1.542004164437e-03
   124   -9.319887677283e-13
   125    6.838281365670e-13
   126    5.403665645222e-13
   127   -2.157511666263e-03
   128   -1.386564353054e-12
   129   -8.142091914932e-13
   130    1.212962610500e-12
   131    2.462804820014e-03
   132   -1.280749858651e-12
   133   -6.417340214166e-12
   134   -1.503937305389e-13
   135   -2.967352436179e-02
   136   -2.853613123661e-13
   137   -4.840857572058e-12
   138    1.737533101770e-12
   139    8.138150025123e-02
   140   -5.062836907601e-12
   141    2.435954888382e-14
   142   -8.978007554200e-14
   143   -9.853753517225e-04
   144    8.605335231724e-14
   145   -3.832412392652e-04
   146    7.373929498085e-13
   147    8.641417359496e-13
   148    2.694634359935e-13
   149    3.429421820980e-12
   150   -9.573864612351e-14
   151   -2.574665944297e-04
   152    1.866323946655e-14
   153   -8.438388671062e-16
   154   -5.747147034040e-15
   155   -2.979854741993e-14
   156   -1.015387164460e-13
   157   -2.286376184241e-13
   158   -1.178420256557e-13
   159   -5.118259393098e-13
   160   -2.460009419077e-13
   161   -4.370371096085e-04
   162    6.955815793050e-13
   163    1.255987391250e-12
   164   -1.848037112274e-13
   165    1.810979861763e-03
   166    1.000072331429e-12
   167   -1.711830131231e-12
   168    1.098898981633e-12
   169   -2.671050638530e-02
   170    1.239015197445e-12
   171    2.062707149258e-11
   172   -2.926558724060e-12
   173    4.402698110145e-02
   174    3.150593305197e-12
   175   -1.614408384198e-12
   176    1.535473450985e-12
   177   -1.099231577106e-01
   178    1.359467293459e-11
   179   -4.114338441198e-13
   180    4.206309599734e-13
   181    2.768568373704e-03
   182    2.664677639865e-13
   183   -2.727280150620e-03
   184    5.714021621417e-13
   185    5.407773629824e-13
   186    2.563319380488e-13
   187   -5.838235839151e-14
   188   -1.667964294269e-14
   189    4.506798943112e-04
   190    1.053140339202e-13
   191    4.079141951246e-15
   192    3.832063238130e-14
   193    1.919015114666e-13
   194    6.413565952341e-13
   195    1.608663223336e-12
   196    9.559063072159e-13
   197    3.343043449662e-12
   198   -8.662687298542e-14
   199    3.757849334741e-02
   200   -5.543635294830e-12
   201   -8.011570405069e-12
   202   -2.299218649801e-13
   203    6.979071346992e-02
   204   -1.040148056072e-11
   205   -1.071696754810e-11
   206    2.751900933543e-12
   207    4.589702112667e-02
   208   -9.459147630311e-12
   209    1.628119420212e-11
   210   -1.870850257213e-11
   211   -6.278728940001e-02
   212   -7.470646190044e-13
   213   -3.308022645919e-12
   214   -3.508576699215e-12
   215    1.210268070547e-01
   216   -3.194256416353e-11
   217   -1.606461462776e-12
   218    4.010733105729e-13
   219    2.340453722967e-02
   220    2.643288339252e-13
   221    1.441069178406e-14
   222   -7.194031990378e-13
   223   -8.862276774753e-13
   224   -1.421336578822e-12
   225   -3.034053323615e-12
   226    6.099056547087e-12
   227    1.217928109023e-11
   228   -2.828567605518e-12
   229   -3.312742582477e-01
   230   -1.465966251805e-11
   231   -6.194830719264e-13
   232   -7.937206244723e-02
   233   -3.642592003047e-12
   234    3.947670925019e-12
   235    2.385937786943e-01
   236    8.765760186728e-12
   237    9.066177856463e-12
   238    5.791964598399e-01
   239    1.997660084485e-11
   240    5.841422033091e-12
   241    3.624877242399e-01
   242    4.812850553758e-12
   243    5.507817835953e-12
   244   -5.607807501432e-14
   245   -5.003175640407e-02
   246   -2.207047537731e-12
   247    1.898792820323e-11
   248    3.080732708460e-14
   249    2.101112454323e-02
   250    2.751516635218e-12
   251   -2.643253370711e-12
   252   -1.493445266366e-13
   253   -1.627695052739e-02
   254    6.217995008975e-14
   255    9.647273655713e-15
Sym=X
Ene= 2.000115
Spin=Alpha
Occup=1
     1    3.976455165464e-03
     2    5.697164187498e-03
     3    1.618899920752e-02
     4   -6.509161133524e-02
     5   -7.264749523923e-04
     6   -7.699480306409e-14
     7   -2.818958323154e-03
     8   -1.160100106095e-05
     9   -8.872412851028e-05
    10   -4.596368202864e-04
    11   -1.527344666160e-03
    12   -3.491142868713e-03
    13    1.649864309959e-04
    14   -9.526314688475e-03
    15   -5.212356134605e-03
    16   -1.449989222544e-14
    17   -1.106861434506e-02
    18    1.575180412772e-02
    19   -1.194413451317e-02
    20   -6.670476537495e-14
    21   -1.523962072766e-02
    22    1.687028381781e-01
    23    6.715910160422e-02
    24    4.017455458835e-13
    25    4.786467511455e-02
    26   -1.467540704884e+00
    27   -5.638619224827e-01
    28   -1.353898617092e-12
    29   -7.108743649183e-01
    30   -2.994965849627e-02
    31   -8.583418196968e-02
    32    8.621939779386e-12
    33    2.033423493027e-02
    34    1.800037598140e-03
    35   -2.930484423100e-03
    36   -1.733684781329e-13
    37   -1.907683511630e-03
    38   -2.132673449697e-14
    39   -9.558215852042e-06
    40   -7.242382314196e-05
    41   -3.825072824230e-04
    42   -1.268149225514e-03
    43   -3.231033058139e-03
    44   -4.156467099001e-04
    45   -7.625690983320e-03
    46   -3.311979032129e-04
    47    8.919577462705e-14
    48    9.629165276245e-03
    49    2.154816131406e-02
    50    5.249648957590e-04
    51    1.481330852822e-13
    52    1.007890526541e-02
    53   -9.418265909903e-03
    54   -3.423622000935e-02
    55    1.235021988762e-13
    56    8.872831307674e-03
    57   -7.711790279529e-02
    58    2.997580318533e-01
    59    1.091290194628e-12
    60   -3.847069111387e-01
    61   -6.313971672322e-03
    62    6.923666324434e-02
    63   -8.267505663884e-12
    64   -2.191994138820e-02
    65    1.649141004442e-03
    66    1.561498712262e-04
    67    7.901692913174e-14
    68    2.970116570709e-04
    69   -2.759863871931e-14
    70    1.015111407005e-03
    71   -5.062993393868e-03
    72   -8.529446856804e-03
    73    2.630335549713e-02
    74   -1.725846764318e-04
    75   -4.540746160417e-15
    76   -3.613992566428e-05
    77   -3.713503610486e-14
    78   -2.890595431498e-13
    79   -1.429084930412e-12
    80   -4.914827920222e-12
    81   -1.192747051841e-11
    82   -6.121684102750e-12
    83   -1.339240082630e-11
    84   -3.558371231120e-05
    85    8.022347925684e-14
    86   -1.003295214712e-12
    87    3.446950053531e-12
    88   -1.416901849900e-03
    89    1.488556845051e-13
    90   -5.951597508802e-12
    91   -2.236261456493e-10
    92   -2.145193370467e-02
    93   -3.861630426075e-14
    94    5.987242621282e-11
    95    2.173044980561e-09
    96    4.283705203849e-01
    97   -1.100324868060e-12
    98    1.471413179696e-09
    99   -6.005520911897e-11
   100   -4.620324525739e-02
   101    8.135111377110e-12
   102    2.312673169485e-11
   103    8.521602106311e-14
   104   -9.548141805043e-04
   105   -9.655758013426e-14
   106    7.294006205726e-13
   107   -2.764189507437e-16
   108    4.185281795785e-12
   109   -3.294747830004e-12
   110    3.112648965327e-10
   111    8.600220560417e-10
   112    3.313041067805e-04
   113    1.190432136796e-13
   114   -1.526530654531e-13
   115    9.558215519107e-06
   116    7.242382055813e-05
   117    3.825072695377e-04
   118    1.268149181287e-03
   119    3.231032953373e-03
   120    4.156466700083e-04
   121    7.625690845500e-03
   122   -3.311979062201e-04
   123    1.189564489826e-13
   124   -9.629165278630e-03
   125   -2.154816131341e-02
   126    5.249648922550e-04
   127    1.961742822308e-13
   128   -1.007890526963e-02
   129    9.418265696242e-03
   130   -3.423622009871e-02
   131    1.360266712638e-13
   132   -8.872831526496e-03
   133    7.711790015509e-02
   134    2.997580323802e-01
   135    1.075799109590e-12
   136    3.847069107257e-01
   137    6.313971114431e-03
   138    6.923666332267e-02
   139   -8.279285348334e-12
   140    2.191994126161e-02
   141   -1.649140999746e-03
   142    1.561498724965e-04
   143    9.223267349191e-14
   144   -2.970116586458e-04
   145    2.743341409457e-14
   146   -1.015111412951e-03
   147    5.062993369168e-03
   148    8.529446948123e-03
   149   -2.630335554920e-02
   150   -1.725846761112e-04
   151   -4.736339953208e-15
   152    3.613992543601e-05
   153    1.160100059397e-05
   154    8.872412488961e-05
   155    4.596368022275e-04
   156    1.527344604166e-03
   157    3.491142722497e-03
   158   -1.649864830395e-04
   159    9.526314490257e-03
   160   -5.212356125389e-03
   161    1.161897393898e-14
   162    1.106861432979e-02
   163   -1.575180412824e-02
   164   -1.194413450830e-02
   165   -3.585309079629e-14
   166    1.523962070895e-02
   167   -1.687028379822e-01
   168    6.715910184680e-02
   169    5.075030626851e-13
   170   -4.786467535828e-02
   171    1.467540702694e+00
   172   -5.638619206691e-01
   173   -1.387114520970e-12
   174    7.108743659952e-01
   175    2.994965812879e-02
   176   -8.583418182734e-02
   177    8.667966139663e-12
   178   -2.033423457706e-02
   179   -1.800037601121e-03
   180   -2.930484425731e-03
   181   -1.668007376485e-13
   182    1.907683511615e-03
   183   -1.295322569062e-14
   184   -3.976455170746e-03
   185   -5.697164180693e-03
   186   -1.618899962083e-02
   187    6.509160982527e-02
   188   -7.264749522392e-04
   189   -1.036398945490e-13
   190    2.818958321350e-03
   191    1.200028625599e-14
   192    9.493342282038e-14
   193    4.752491069355e-13
   194    1.622143109605e-12
   195    4.058420829272e-12
   196    2.815617477664e-12
   197    2.663687113761e-12
   198    2.675117769024e-02
   199   -6.131288329916e-13
   200    2.373060841595e-12
   201    1.311414041589e-12
   202    3.458787968898e-02
   203   -1.135753077826e-12
   204    7.277680345363e-12
   205    2.499018930175e-10