[Molden Format]
[Atoms] (Angs)
  H      1    1     -2.14003202      0.00000000      0.38146042
  C      2    6     -1.21205832      0.00000000     -0.17180643
  C      3    6     -1.20429565      0.00000000     -1.56369320
  H      4    1     -2.14371879      0.00000000     -2.09923439
  C      5    6     -0.00000000      0.00000000     -2.26269040
  H      6    1     -0.00000000      0.00000000     -3.34354440
  C      7    6      1.20429565      0.00000000     -1.56369320
  H      8    1      2.14371879      0.00000000     -2.09923439
  C      9    6      1.21205832     -0.00000000     -0.17180643
  H     10    1      2.14003202     -0.00000000      0.38146042
  C     11    6      0.00000000     -0.00000000      0.51110416
 Cl     12   17      0.00000000     -0.00000000      2.24203561
[GTO]
1    0
S    3    1.000000
   3.38650000E+01    2.54938000E-02 
   5.09479000E+00    1.90373000E-01 
   1.15879000E+00    8.52161000E-01 
S    1    1.000000
   3.25840000E-01    1.00000000E+00 
S    1    1.000000
   1.02741000E-01    1.00000000E+00 
S    1    1.000000
   3.60000000E-02    1.00000000E+00 
P    1    1.000000
   7.50000000E-01    1.00000000E+00 

2    0
S    1    1.000000
   4.56324000E+03    1.96665000E-03 
S    1    1.000000
   6.82024000E+02    1.52306000E-02 
S    1    1.000000
   1.54973000E+02    7.61269000E-02 
S    1    1.000000
   4.44553000E+01    2.60801000E-01 
S    1    1.000000
   1.30290000E+01    6.16462000E-01 
S    1    1.000000
   1.82773000E+00    2.21006000E-01 
SP   3    1.000000
   2.09642000E+01    1.14660000E-01   4.02487000E-02 
   4.80331000E+00    9.19999000E-01   2.37594000E-01 
   1.45933000E+00   -3.03068000E-03   8.15854000E-01 
SP   1    1.000000
   4.83456000E-01    1.00000000E+00   1.00000000E+00 
SP   1    1.000000
   1.45585000E-01    1.00000000E+00   1.00000000E+00 
SP   1    1.000000
   4.38000000E-02    1.00000000E+00   1.00000000E+00 
SP   1    1.000000
   1.31927711E-02    1.00000000E+00   1.00000000E+00 
D    1    1.000000
   6.26000000E-01    1.00000000E+00 

3    0
S    1    1.000000
   4.56324000E+03    1.96665000E-03 
S    1    1.000000
   6.82024000E+02    1.52306000E-02 
S    1    1.000000
   1.54973000E+02    7.61269000E-02 
S    1    1.000000
   4.44553000E+01    2.60801000E-01 
S    1    1.000000
   1.30290000E+01    6.16462000E-01 
S    1    1.000000
   1.82773000E+00    2.21006000E-01 
SP   3    1.000000
   2.09642000E+01    1.14660000E-01   4.02487000E-02 
   4.80331000E+00    9.19999000E-01   2.37594000E-01 
   1.45933000E+00   -3.03068000E-03   8.15854000E-01 
SP   1    1.000000
   4.83456000E-01    1.00000000E+00   1.00000000E+00 
SP   1    1.000000
   1.45585000E-01    1.00000000E+00   1.00000000E+00 
SP   1    1.000000
   4.38000000E-02    1.00000000E+00   1.00000000E+00 
SP   1    1.000000
   1.31927711E-02    1.00000000E+00   1.00000000E+00 
D    1    1.000000
   6.26000000E-01    1.00000000E+00 

4    0
S    3    1.000000
   3.38650000E+01    2.54938000E-02 
   5.09479000E+00    1.90373000E-01 
   1.15879000E+00    8.52161000E-01 
S    1    1.000000
   3.25840000E-01    1.00000000E+00 
S    1    1.000000
   1.02741000E-01    1.00000000E+00 
S    1    1.000000
   3.60000000E-02    1.00000000E+00 
P    1    1.000000
   7.50000000E-01    1.00000000E+00 

5    0
S    1    1.000000
   4.56324000E+03    1.96665000E-03 
S    1    1.000000
   6.82024000E+02    1.52306000E-02 
S    1    1.000000
   1.54973000E+02    7.61269000E-02 
S    1    1.000000
   4.44553000E+01    2.60801000E-01 
S    1    1.000000
   1.30290000E+01    6.16462000E-01 
S    1    1.000000
   1.82773000E+00    2.21006000E-01 
SP   3    1.000000
   2.09642000E+01    1.14660000E-01   4.02487000E-02 
   4.80331000E+00    9.19999000E-01   2.37594000E-01 
   1.45933000E+00   -3.03068000E-03   8.15854000E-01 
SP   1    1.000000
   4.83456000E-01    1.00000000E+00   1.00000000E+00 
SP   1    1.000000
   1.45585000E-01    1.00000000E+00   1.00000000E+00 
SP   1    1.000000
   4.38000000E-02    1.00000000E+00   1.00000000E+00 
SP   1    1.000000
   1.31927711E-02    1.00000000E+00   1.00000000E+00 
D    1    1.000000
   6.26000000E-01    1.00000000E+00 

6    0
S    3    1.000000
   3.38650000E+01    2.54938000E-02 
   5.09479000E+00    1.90373000E-01 
   1.15879000E+00    8.52161000E-01 
S    1    1.000000
   3.25840000E-01    1.00000000E+00 
S    1    1.000000
   1.02741000E-01    1.00000000E+00 
S    1    1.000000
   3.60000000E-02    1.00000000E+00 
P    1    1.000000
   7.50000000E-01    1.00000000E+00 

7    0
S    1    1.000000
   4.56324000E+03    1.96665000E-03 
S    1    1.000000
   6.82024000E+02    1.52306000E-02 
S    1    1.000000
   1.54973000E+02    7.61269000E-02 
S    1    1.000000
   4.44553000E+01    2.60801000E-01 
S    1    1.000000
   1.30290000E+01    6.16462000E-01 
S    1    1.000000
   1.82773000E+00    2.21006000E-01 
SP   3    1.000000
   2.09642000E+01    1.14660000E-01   4.02487000E-02 
   4.80331000E+00    9.19999000E-01   2.37594000E-01 
   1.45933000E+00   -3.03068000E-03   8.15854000E-01 
SP   1    1.000000
   4.83456000E-01    1.00000000E+00   1.00000000E+00 
SP   1    1.000000
   1.45585000E-01    1.00000000E+00   1.00000000E+00 
SP   1    1.000000
   4.38000000E-02    1.00000000E+00   1.00000000E+00 
SP   1    1.000000
   1.31927711E-02    1.00000000E+00   1.00000000E+00 
D    1    1.000000
   6.26000000E-01    1.00000000E+00 

8    0
S    3    1.000000
   3.38650000E+01    2.54938000E-02 
   5.09479000E+00    1.90373000E-01 
   1.15879000E+00    8.52161000E-01 
S    1    1.000000
   3.25840000E-01    1.00000000E+00 
S    1    1.000000
   1.02741000E-01    1.00000000E+00 
S    1    1.000000
   3.60000000E-02    1.00000000E+00 
P    1    1.000000
   7.50000000E-01    1.00000000E+00 

9    0
S    1    1.000000
   4.56324000E+03    1.96665000E-03 
S    1    1.000000
   6.82024000E+02    1.52306000E-02 
S    1    1.000000
   1.54973000E+02    7.61269000E-02 
S    1    1.000000
   4.44553000E+01    2.60801000E-01 
S    1    1.000000
   1.30290000E+01    6.16462000E-01 
S    1    1.000000
   1.82773000E+00    2.21006000E-01 
SP   3    1.000000
   2.09642000E+01    1.14660000E-01   4.02487000E-02 
   4.80331000E+00    9.19999000E-01   2.37594000E-01 
   1.45933000E+00   -3.03068000E-03   8.15854000E-01 
SP   1    1.000000
   4.83456000E-01    1.00000000E+00   1.00000000E+00 
SP   1    1.000000
   1.45585000E-01    1.00000000E+00   1.00000000E+00 
SP   1    1.000000
   4.38000000E-02    1.00000000E+00   1.00000000E+00 
SP   1    1.000000
   1.31927711E-02    1.00000000E+00   1.00000000E+00 
D    1    1.000000
   6.26000000E-01    1.00000000E+00 

10    0
S    3    1.000000
   3.38650000E+01    2.54938000E-02 
   5.09479000E+00    1.90373000E-01 
   1.15879000E+00    8.52161000E-01 
S    1    1.000000
   3.25840000E-01    1.00000000E+00 
S    1    1.000000
   1.02741000E-01    1.00000000E+00 
S    1    1.000000
   3.60000000E-02    1.00000000E+00 
P    1    1.000000
   7.50000000E-01    1.00000000E+00 

11    0
S    1    1.000000
   4.56324000E+03    1.96665000E-03 
S    1    1.000000
   6.82024000E+02    1.52306000E-02 
S    1    1.000000
   1.54973000E+02    7.61269000E-02 
S    1    1.000000
   4.44553000E+01    2.60801000E-01 
S    1    1.000000
   1.30290000E+01    6.16462000E-01 
S    1    1.000000
   1.82773000E+00    2.21006000E-01 
SP   3    1.000000
   2.09642000E+01    1.14660000E-01   4.02487000E-02 
   4.80331000E+00    9.19999000E-01   2.37594000E-01 
   1.45933000E+00   -3.03068000E-03   8.15854000E-01 
SP   1    1.000000
   4.83456000E-01    1.00000000E+00   1.00000000E+00 
SP   1    1.000000
   1.45585000E-01    1.00000000E+00   1.00000000E+00 
SP   1    1.000000
   4.38000000E-02    1.00000000E+00   1.00000000E+00 
SP   1    1.000000
   1.31927711E-02    1.00000000E+00   1.00000000E+00 
D    1    1.000000
   6.26000000E-01    1.00000000E+00 

12    0
S    6    1.000000
   1.05819000E+05    7.38000000E-04 
   1.58720000E+04    5.71800000E-03 
   3.61965000E+03    2.94950000E-02 
   1.03080000E+03    1.17286000E-01 
   3.39908000E+02    3.62949000E-01 
   1.24538000E+02    5.84149000E-01 
S    3    1.000000
   1.24538000E+02    1.34177000E-01 
   4.95135000E+01    6.24250000E-01 
   2.08056000E+01    2.91756000E-01 
S    1    1.000000
   6.58346000E+00    1.00000000E+00 
S    1    1.000000
   2.56468000E+00    1.00000000E+00 
S    1    1.000000
   5.59763000E-01    1.00000000E+00 
S    1    1.000000
   1.83273000E-01    1.00000000E+00 
P    5    1.000000
   5.89776000E+02    2.39100000E-03 
   1.39849000E+02    1.85040000E-02 
   4.51413000E+01    8.13770000E-02 
   1.68733000E+01    2.21552000E-01 
   6.74110000E+00    7.72569000E-01 
P    2    1.000000
   6.74110000E+00   -1.57224400E+00 
   2.77152000E+00    9.92389000E-01 
P    1    1.000000
   1.02387000E+00    1.00000000E+00 
P    1    1.000000
   3.81368000E-01    1.00000000E+00 
P    1    1.000000
   1.09437000E-01    1.00000000E+00 
SP   1    1.000000
   4.83000000E-02    1.00000000E+00   1.00000000E+00 
SP   1    1.000000
   1.45481928E-02    1.00000000E+00   1.00000000E+00 
D    1    1.000000
   7.50000000E-01    1.00000000E+00 

[MO]
Sym=X
Ene= 2.000537
Spin=Alpha
Occup=1
     1   -6.227544078330e-13
     2   -7.983819628018e-13
     3    1.760739904083e-13
     4   -3.781798349376e-12
     5   -4.248273221089e-14
     6   -1.695736506039e-03
     7   -1.146226677775e-13
     8    3.782128702879e-16
     9   -2.040710531008e-15
    10   -3.431970661746e-15
    11   -1.355922019449e-14
    12   -3.711029600470e-14
    13   -9.454958519988e-14
    14   -6.602187399224e-14
    15   -7.220968368086e-13
    16   -1.906663699337e-02
    17   -2.370899666205e-12
    18    5.958985251856e-13
    19   -9.775635832996e-13
    20   -3.042565483037e-02
    21   -3.643914861763e-12
    22   -1.829827665941e-12
    23   -3.155701537099e-13
    24    1.360322338983e-02
    25   -2.896957202114e-12
    26    2.613764366455e-12
    27   -1.163979856425e-12
    28   -4.713387917781e-02
    29    3.786937048286e-12
    30    6.146854972572e-13
    31   -5.748564698689e-12
    32    1.107877824799e-01
    33   -6.794365539860e-12
    34    4.716831722394e-13
    35    2.327948183718e-14
    36    6.609393902317e-04
    37   -2.795080025827e-13
    38   -5.240751444625e-03
    39    2.475777277496e-16
    40    2.566306169709e-15
    41    1.151879487130e-14
    42    4.091824377047e-14
    43    6.695588908466e-14
    44   -5.468980612546e-14
    45    2.033235071428e-13
    46    4.722707302743e-13
    47   -2.662831191649e-02
    48    2.553650050641e-12
    49    3.399738540081e-13
    50    7.490026768426e-13
    51   -4.622153706771e-02
    52    3.917302790278e-12
    53   -1.221151141648e-12
    54    1.033094430381e-12
    55   -4.019004651074e-02
    56    3.094193569449e-12
    57    4.182123358668e-12
    58   -3.016438940170e-13
    59    3.089604035121e-02
    60   -2.618152968459e-12
    61    2.574896942742e-12
    62    2.153408330478e-12
    63   -8.224349633878e-02
    64    2.429726651505e-12
    65    3.840162402257e-13
    66   -1.941962727293e-13
    67   -2.003666957541e-04
    68   -2.444093450450e-13
    69   -5.300282418498e-03
    70   -1.561429768716e-12
    71   -2.357122617878e-12
    72    2.398383847787e-14
    73   -2.341663952141e-12
    74   -1.590504004238e-13
    75   -1.677208224247e-03
    76    6.248243448573e-17
    77    2.932258475871e-15
    78    2.539412849214e-14
    79    1.208645490104e-13
    80    4.218654946273e-13
    81    9.903791691097e-13
    82    3.911440193963e-13
    83    1.572188429815e-12
    84   -5.256811936036e-14
    85   -3.658724688130e-02
    86   -9.432646763406e-13
    87   -1.331774087263e-12
    88   -5.358099559311e-14
    89   -6.388487218172e-02
    90   -1.466712541256e-12
    91   -1.385532777010e-12
    92   -7.636443242250e-13
    93   -5.240505215177e-02
    94   -2.286330237744e-12
    95    1.306380975322e-11
    96    4.807922603311e-12
    97   -3.379420086688e-02
    98   -3.561051364226e-13
    99    5.213940519046e-12
   100    3.790613426186e-13
   101    7.102875445139e-02
   102   -2.120904590196e-12
   103    5.462530823498e-13
   104   -4.831701035446e-14
   105   -4.935460313012e-03
   106   -3.690835382734e-13
   107   -1.405448122138e-14
   108    9.304232559274e-13
   109    1.580155457880e-12
   110    5.072286480498e-13
   111   -3.936831392988e-12
   112    1.621964992230e-14
   113   -3.055742565954e-03
   114    2.437235725334e-14
   115    3.744440032979e-16
   116    5.052350947172e-15
   117    2.247049248621e-14
   118    7.269233039705e-14
   119    2.096375548695e-13
   120    1.270069471168e-13
   121    2.800799894310e-13
   122   -3.366893148479e-13
   123   -2.662831191660e-02
   124    2.578513019653e-12
   125   -7.931212051967e-13
   126   -4.653010423407e-13
   127   -4.622153706792e-02
   128    3.941952251214e-12
   129    3.055914409270e-13
   130   -1.642182733010e-12
   131   -4.019004651096e-02
   132    2.302361264590e-12
   133   -3.264805364514e-13
   134    7.078232811883e-12
   135    3.089604035201e-02
   136    3.491123308067e-12
   137    3.599611357356e-12
   138   -8.775238679283e-14
   139   -8.224349634676e-02
   140    4.867111868419e-12
   141    3.315407390924e-13
   142    2.077541191102e-13
   143   -2.003666957977e-04
   144   -2.632613693371e-13
   145    5.300282418528e-03
   146   -1.499726407146e-12
   147   -1.984140829924e-12
   148   -8.900814321058e-13
   149   -5.446101914377e-12
   150    1.993377986926e-13
   151   -1.677208224234e-03
   152    1.423845379558e-14
   153    1.008029372660e-16
   154   -7.980580832130e-16
   155   -3.623813690192e-15
   156   -9.826432562499e-15
   157   -4.578583520391e-14
   158   -7.988095902421e-15
   159   -1.409229749293e-14
   160    7.293232943737e-13
   161   -1.906663699354e-02
   162   -2.292700121365e-12
   163   -1.894881273312e-13
   164    1.046913682364e-12
   165   -3.042565483062e-02
   166   -3.476250632651e-12
   167    1.357555613782e-12
   168    1.677746723703e-13
   169    1.360322338961e-02
   170   -2.471171737255e-12
   171   -1.247289173060e-11
   172   -1.423744499639e-13
   173   -4.713387917879e-02
   174    7.217785689877e-12
   175    1.280585579436e-12
   176   -2.799718383650e-12
   177    1.107877824887e-01
   178   -1.138797506027e-11
   179    4.382415483705e-13
   180   -5.221618613760e-14
   181    6.609393902631e-04
   182   -2.731067779310e-13
   183    5.240751444658e-03
   184   -5.139838077108e-13
   185   -5.839458415982e-13
   186   -7.384590662311e-13
   187   -1.035901950889e-12
   188    9.046149916000e-14
   189   -1.695736506028e-03
   190   -1.005527622459e-13
   191    3.667745944026e-16
   192   -4.574285300820e-15
   193   -1.312960790354e-14
   194   -5.671987848413e-14
   195   -1.363544499546e-13
   196   -1.048433410205e-13
   197    3.215525360007e-14
   198    4.508900599260e-14
   199   -5.053255448961e-02
   200    2.831183644167e-12
   201   -1.070118642094e-12
   202    8.067382940636e-14
   203   -9.238035515277e-02
   204    5.007698470248e-12
   205    9.582907691751e-13
   206   -7.183735262350e-13
   207   -6.583457474085e-02
   208    4.806683633390e-12
   209   -2.610278383569e-12
   210    8.035893736772e-13
   211    6.817376002974e-02
   212   -1.407546682472e-11
   213    3.143854119803e-12
   214    3.432670817391e-12
   215   -1.254920201149e-01
   216    2.387570267067e-11
   217    1.012957719132e-12
   218   -8.845538072243e-15
   219   -2.209012825108e-02
   220   -4.081666882975e-13
   221   -3.121229117973e-14
   222    5.493324588166e-13
   223    9.640410535590e-13
   224   -3.320024459432e-13
   225   -7.087002804873e-13
   226    9.014182600506e-13
   227   -1.585625335495e-12
   228    1.799727480344e-13
   229    3.168873741929e-01
   230    5.427281969738e-12
   231    3.622060453984e-14
   232    7.595491500121e-02
   233    1.340548961948e-12
   234   -4.291114238075e-13
   235   -2.266549663933e-01
   236   -3.497314675915e-12
   237   -9.420993549466e-13
   238   -5.520903978596e-01
   239   -7.940451507757e-12
   240   -5.612136773298e-13
   241   -3.333663621543e-01
   242   -2.417839908513e-12
   243    9.686603826581e-12
   244   -1.929810797228e-13
   245    4.624395511658e-02
   246   -1.300028937633e-12
   247   -1.346233400511e-11
   248    6.291577714739e-13
   249   -1.711386084083e-02
   250   -2.116720064410e-12
   251    9.052116884370e-13
   252    2.018174613841e-14
   253    2.178839380394e-02
   254   -4.957767978783e-14
   255   -1.182322781883e-14
Sym=X
Ene= 2.000019
Spin=Alpha
Occup=1
     1    1.950515991637e-03
     2    3.628343425434e-03
     3   -5.388231446325e-03
     4   -3.439467653992e-02
     5    4.158139274884e-04
     6   -7.679294912273e-14
     7   -2.944012056647e-04
     8   -5.651421970886e-06
     9   -4.316605324488e-05
    10   -2.253882898160e-04
    11   -7.566633939669e-04
    12   -1.829712086573e-03
    13    4.247293609269e-05
    14   -4.747414593447e-03
    15   -1.383154090955e-03
    16   -1.170858196535e-12
    17   -5.579254355290e-03
    18    1.096230792780e-02
    19   -3.190342581105e-03
    20   -1.952649655030e-12
    21   -7.566389303487e-03
    22   -1.174802694347e-02
    23   -3.774019562734e-03
    24   -1.538187159021e-12
    25    1.059865453281e-02
    26   -3.831384568613e-02
    27   -6.947175329811e-02
    28    2.006830440161e-13
    29   -1.540577419979e-02
    30   -2.862198072728e-03
    31   -2.305812311454e-03
    32   -9.218443266915e-13
    33    7.851550726176e-03
    34    2.135519858774e-03
    35    4.843024105159e-04
    36    1.291504793967e-13
    37    2.648548278507e-04
    38   -1.421187834255e-13
    39    9.911937736085e-06
    40    7.457031392103e-05
    41    3.963744991741e-04
    42    1.290221099204e-03
    43    3.398986799812e-03
    44    2.428382525289e-03
    45    7.142432209911e-03
    46   -1.658576538071e-02
    47   -1.254521755436e-12
    48    2.035677104708e-02
    49   -1.955495597926e-02
    50   -2.915842148966e-02
    51   -2.259686516954e-12
    52    3.243792770728e-02
    53    3.197636725935e-02
    54    2.611381406319e-04
    55   -1.636687929721e-12
    56    2.141232073036e-03
    57   -1.260026927947e-01
    58    1.372371524946e-03
    59   -2.918203429465e-13
    60   -4.826587204296e-02
    61   -9.228686009652e-03
    62   -2.448041352497e-03
    63    7.927551503996e-13
    64   -1.634050051831e-03
    65   -4.665976297868e-03
    66    1.314778153195e-02
    67   -1.010078161981e-13
    68    5.363087097018e-04
    69   -1.979786416033e-13
    70    6.042603205295e-03
    71    1.246108494534e-02
    72    1.371201820388e-02
    73   -6.538176615970e-03
    74   -1.766709532134e-03
    75   -9.632747124061e-14
    76   -3.673344228851e-04
    77    1.188948938612e-04
    78    8.908634807292e-04
    79    4.815631351145e-03
    80    1.543811417705e-02
    81    3.900166452347e-02
    82    1.922761548119e-02
    83    1.162340490343e-01
    84   -1.181585627964e-12
    85   -1.320890815329e-12
    86    1.171106941246e-01
    87   -3.599690621546e-01
    88    5.187984030750e-12
    89   -2.170107811970e-12
    90    1.782621441046e-01
    91   -2.679518525586e-01
    92   -1.113403591608e-10
    93   -1.707090299910e-12
    94    1.118824465598e-01
    95    9.720913128996e-02
    96    5.026111501969e-10
    97    1.603444547634e-13
    98    1.286128521847e-01
    99    5.624898310154e-03
   100   -1.319050247924e-10
   101   -7.545042005906e-13
   102    3.979786534414e-04
   103   -1.852704769113e-02
   104    2.099671634989e-12
   105   -2.000036741484e-13
   106   -4.313888954365e-03
   107    1.426785796211e-14
   108   -1.713388791818e-01
   109   -2.554730855917e-01
   110   -1.432863693304e-02
   111    5.947576534014e-02
   112   -1.202220733405e-12
   113   -9.189194734145e-14
   114   -2.880506070946e-02
   115    9.911937174913e-06
   116    7.457030957614e-05
   117    3.963744774837e-04
   118    1.290221024799e-03
   119    3.398986623762e-03
   120    2.428382460085e-03
   121    7.142431972040e-03
   122    1.658576537188e-02
   123   -1.163601201691e-12
   124    2.035677105587e-02
   125   -1.955495596256e-02
   126    2.915842148793e-02
   127   -2.126867591728e-12
   128    3.243792771214e-02
   129    3.197636748259e-02
   130   -2.611383976331e-04
   131   -1.484559146031e-12
   132    2.141232274071e-03
   133   -1.260026857857e-01
   134   -1.372374837592e-03
   135   -2.867688287229e-13
   136   -4.826586917882e-02
   137   -9.228685505002e-03
   138    2.448041405857e-03
   139    7.552984292950e-13
   140   -1.634050116526e-03
   141   -4.665976300222e-03
   142   -1.314778153099e-02
   143   -8.432287367059e-14
   144    5.363087109669e-04
   145    1.984349023676e-13
   146    6.042603211756e-03
   147    1.246108494232e-02
   148    1.371201885184e-02
   149   -6.538174130890e-03
   150    1.766709533965e-03
   151   -8.947037630442e-14
   152   -3.673344227382e-04
   153   -5.651422763234e-06
   154   -4.316605937382e-05
   155   -2.253883204061e-04
   156   -7.566634989597e-04
   157   -1.829712334742e-03
   158    4.247284483477e-05
   159   -4.747414926332e-03
   160    1.383154101493e-03
   161   -1.091475891807e-12
   162   -5.579254348973e-03
   163    1.096230793704e-02
   164    3.190342590129e-03
   165   -1.793606817929e-12
   166   -7.566389304934e-03
   167   -1.174802705393e-02
   168    3.774019772256e-03
   169   -1.399729111329e-12
   170    1.059865479519e-02
   171   -3.831385320732e-02
   172    6.947175655213e-02
   173    2.256560871619e-13
   174   -1.540577159246e-02
   175   -2.862198428602e-03
   176    2.305812296492e-03
   177   -8.869303404129e-13
   178    7.851551159045e-03
   179    2.135519861627e-03
   180   -4.843024104899e-04
   181    1.156257991508e-13
   182    2.648548262977e-04
   183    1.397813277125e-13
   184    1.950515986628e-03
   185    3.628343425761e-03
   186   -5.388232126073e-03
   187   -3.439467883796e-02
   188   -4.158139291387e-04
   189   -7.135312266408e-14
   190   -2.944012056932e-04
   191    1.331971261214e-05
   192    1.011775857059e-04
   193    5.259883925623e-04
   194    1.740316010973e-03
   195    4.419850754038e-03
   196    2.927583231145e-03
   197    8.137561284521e-03
   198    1.535587375201e-12
   199   -9.206503318976e-13
   200   -5.283278366633e-03
   201   -2.103189320617e-02
   202    1.343284945976e-12
   203   -1.681185209278e-12
   204   -1.075337703708e-02
   205   -6.090287574155e-03
   206    3.172360030740e-11
   207   -1.138265148081e-12
   208   -1.499576910739e-02
   209    2.790382206262e-01
   210   -2.546273072273e-10
   211   -1.036694976749e-13
   212   -3.483908460631e-03
   213    1.200288504055e-02
   214    1.117416323449e-10
   215    7.450491024741e-13
   216   -2.198562190602e-02
   217   -6.465243486039e-04
   218    3.088968745594e-12
   219    2.577412965776e-13
   220   -4.169966012270e-04
   221    9.215722036738e-15
   222   -5.812807271089e-04
   223   -1.706377001483e-03
   224    3.459624846420e-03
   225    8.237453781937e-03
   226   -1.422956526860e-02
   227   -4.052404687362e-03
   228    1.161028449327e-10
   229   -2.386989550302e-11
   230   -1.131729882777e-02
   231    3.104607987991e-11
   232   -6.307711951255e-12
   233   -2.827470352209e-03
   234    9.347195050767e-12
   235    5.518963082956e-14
   236    7.956539421619e-03
   237    1.290608515798e-11
   238    2.350640860697e-12
   239    1.700222420717e-02
   240   -1.532222336732e-11
   241    1.804085162024e-12
   242    3.909356775020e-03
   243   -3.661631963199e-02
   244    1.237124336350e-11
   245   -3.663616951239e-13
   246    9.186418664156e-03
   247    9.687917337226e-03
   248   -8.506602491150e-11
   249    2.230042320224e-13
   250    1.643647259834e-03
   251   -3.174113481072e-03
   252   -4.188190504081e-12
   253    8.581605256762e-14
   254    1.375531616337e-04
   255   -9.978367456605e-16
Sym=X
Ene= 2.000000
Spin=Alpha
Occup=1
     1    3.895901678654e-05
     2   -1.297504519256e-04
     3    7.219658933149e-04
     4    6.814003136742e-03
     5    5.445244698857e-05
     6   -4.000415649638e-15
     7    7.424217102658e-05
     8   -1.564505155813e-08
     9   -1.090493843773e-07
    10   -5.884241684462e-07
    11   -1.795382155025e-06
    12   -9.737312078708e-06
    13   -4.850853989987e-05
    14    2.771955888805e-05
    15   -1.818052191484e-05
    16    1.017304848442e-13
    17   -5.763467328427e-05
    18    5.173345874175e-05
    19    4.529297579420e-05
    20    1.680907452573e-13
    21    2.771921981428e-04
    22   -5.185206442193e-04
    23   -8.973219649933e-04
    24    3.722116312306e-14
    25   -5.780127492982e-04
    26    9.957413846443e-03
    27    1.141618061720e-02
    28    4.910931640313e-13
    29    8.426351421016e-04
    30    3.180770598453e-03
    31    3.664750134147e-04
    32   -8.959056388877e-13
    33   -3.749440225042e-03
    34   -7.795371412172e-05
    35    1.271596374008e-04
    36   -3.771683339333e-14
    37   -1.991875536061e-05
    38    5.046576630934e-14
    39   -6.447224913326e-09
    40    5.869767643318e-08
    41   -4.832186701200e-07
    42    1.390760138545e-06
    43   -2.523084231264e-05
    44   -1.184535293899e-04
    45    6.982580230293e-05
    46    2.471953985390e-05
    47    1.717481834208e-13
    48   -3.619499274770e-05
    49    3.070743246227e-04
    50   -3.224665482627e-06
    51    2.583696872825e-13
    52    1.376376863393e-04
    53   -1.158888624513e-03
    54    1.409315626204e-04
    55    2.560441091972e-13
    56   -6.025446059342e-04
    57    1.928455442312e-02
    58    2.401435353397e-03
    59   -3.843049738874e-13
    60    7.096287530095e-03
    61    4.746275145887e-03
    62    1.428591841001e-03
    63    5.491665966240e-13
    64    8.570596608930e-04
    65    4.402691547716e-05
    66    5.895202931869e-07
    67   -9.108556982574e-15
    68   -7.804357227841e-05
    69    4.450750811445e-14
    70    1.682119624877e-06
    71   -1.583326925846e-05
    72    1.704701989896e-04
    73    2.748675034743e-03
    74    1.671286663496e-06
    75    1.108036257159e-14
    76    3.607008075490e-05
    77    8.951602191183e-06
    78    6.939301181091e-05
    79    3.453259326652e-04
    80    1.188513801406e-03
    81    2.788783267558e-03
    82    9.497086807374e-04
    83    3.724588664038e-03
    84    7.033688093850e-14
    85    2.408784225329e-13
    86   -1.626438598716e-04
    87    5.538937255572e-04
    88    1.168115803497e-13
    89    3.973239033196e-13
    90   -1.165078649545e-04
    91    2.945273778507e-05
    92   -3.906073742166e-14
    93    3.553838311291e-13
    94   -2.864305936521e-05
    95   -9.394787304156e-03
    96    2.146943164491e-11
    97    3.211421619945e-13
    98   -5.357833608312e-03
    99    3.522639885903e-03
   100    1.379451781345e-12
   101   -2.788842659162e-13
   102    1.269363064092e-03
   103   -2.117911316082e-05
   104    5.958337885138e-14
   105    3.451181397060e-14
   106    6.267534558583e-06
   107    8.830963888536e-16
   108    2.147049749765e-04
   109    4.170607575672e-04
   110   -1.611153491820e-04
   111   -1.730106677026e-03
   112    1.375644486061e-14
   113    2.037313289092e-14
   114    5.999458313856e-05
   115   -6.447122985503e-09
   116    5.869846336621e-08
   117   -4.832147376414e-07
   118    1.390773624435e-06
   119   -2.523081038490e-05
   120   -1.184535176916e-04
   121    6.982584468464e-05
   122   -2.471953964121e-05
   123    1.828346666813e-13
   124   -3.619499282949e-05
   125    3.070743256683e-04
   126    3.224665784584e-06
   127    2.768736414507e-13
   128    1.376376863203e-04
   129   -1.158888624109e-03
   130   -1.409315627431e-04
   131    2.725729125701e-13
   132   -6.025446066570e-04
   133    1.928455441862e-02
   134   -2.401435321088e-03
   135   -3.818916040072e-13
   136    7.096287566042e-03
   137    4.746275146096e-03
   138   -1.428591841459e-03
   139    5.731475541614e-13
   140    8.570596641741e-04
   141    4.402691552338e-05
   142   -5.895203058980e-07
   143   -8.437265849184e-15
   144   -7.804357226097e-05
   145   -4.453779467070e-14
   146    1.682120036251e-06
   147   -1.583326846228e-05
   148    1.704701985042e-04
   149    2.748675030943e-03
   150   -1.671286779797e-06
   151    1.081779589952e-14
   152    3.607008084061e-05
   153   -1.564490559999e-08
   154   -1.090482537210e-07
   155   -5.884185313426e-07
   156   -1.795362787918e-06
   157   -9.737266403952e-06
   158   -4.850852317586e-05
   159    2.771962007014e-05
   160    1.818052184324e-05
   161    1.180373862704e-13
   162   -5.763467325243e-05
   163    5.173345941033e-05
   164   -4.529297593322e-05
   165    1.906049423161e-13
   166    2.771921980236e-04
   167   -5.185206455743e-04
   168    8.973219659978e-04
   169    5.720986114392e-14
   170   -5.780127506563e-04
   171    9.957413957858e-03
   172   -1.141618066369e-02
   173    4.909002716480e-13
   174    8.426352024506e-04
   175    3.180770601127e-03
   176   -3.664750137574e-04
   177   -9.163757258362e-13
   178   -3.749440227173e-03
   179   -7.795371403990e-05
   180   -1.271596374424e-04
   181   -3.873086729318e-14
   182   -1.991875535021e-05
   183   -5.111342048429e-14
   184    3.895901685854e-05
   185   -1.297504516593e-04
   186    7.219658924981e-04
   187    6.814003138053e-03
   188   -5.445244703061e-05
   189   -2.823576782142e-15
   190    7.424217100230e-05
   191   -1.082971000649e-05
   192   -8.377500302155e-05
   193   -4.181205045916e-04
   194   -1.434050634273e-03
   195   -3.410590300957e-03
   196   -1.294739714816e-03
   197   -4.375383461174e-03
   198    2.231309360682e-13
   199    2.488198342960e-13
   200   -4.709338172502e-04
   201   -8.771294510374e-04
   202    4.048960719891e-13
   203    7.594561149160e-13
   204    5.967004714936e-04
   205    8.303975261993e-04