[Molden Format]
[Atoms] (Angs)
  H      1    1     -2.14003202      0.00000000      0.38146042
  C      2    6     -1.21205832      0.00000000     -0.17180643
  C      3    6     -1.20429565      0.00000000     -1.56369320
  H      4    1     -2.14371879      0.00000000     -2.09923439
  C      5    6     -0.00000000      0.00000000     -2.26269040
  H      6    1     -0.00000000      0.00000000     -3.34354440
  C      7    6      1.20429565      0.00000000     -1.56369320
  H      8    1      2.14371879      0.00000000     -2.09923439
  C      9    6      1.21205832     -0.00000000     -0.17180643
  H     10    1      2.14003202     -0.00000000      0.38146042
  C     11    6      0.00000000     -0.00000000      0.51110416
 Cl     12   17      0.00000000     -0.00000000      2.24203561
[GTO]
1    0
S    3    1.000000
   3.38650000E+01    2.54938000E-02 
   5.09479000E+00    1.90373000E-01 
   1.15879000E+00    8.52161000E-01 
S    1    1.000000
   3.25840000E-01    1.00000000E+00 
S    1    1.000000
   1.02741000E-01    1.00000000E+00 
S    1    1.000000
   3.60000000E-02    1.00000000E+00 
P    1    1.000000
   7.50000000E-01    1.00000000E+00 

2    0
S    1    1.000000
   4.56324000E+03    1.96665000E-03 
S    1    1.000000
   6.82024000E+02    1.52306000E-02 
S    1    1.000000
   1.54973000E+02    7.61269000E-02 
S    1    1.000000
   4.44553000E+01    2.60801000E-01 
S    1    1.000000
   1.30290000E+01    6.16462000E-01 
S    1    1.000000
   1.82773000E+00    2.21006000E-01 
SP   3    1.000000
   2.09642000E+01    1.14660000E-01   4.02487000E-02 
   4.80331000E+00    9.19999000E-01   2.37594000E-01 
   1.45933000E+00   -3.03068000E-03   8.15854000E-01 
SP   1    1.000000
   4.83456000E-01    1.00000000E+00   1.00000000E+00 
SP   1    1.000000
   1.45585000E-01    1.00000000E+00   1.00000000E+00 
SP   1    1.000000
   4.38000000E-02    1.00000000E+00   1.00000000E+00 
SP   1    1.000000
   1.31927711E-02    1.00000000E+00   1.00000000E+00 
D    1    1.000000
   6.26000000E-01    1.00000000E+00 

3    0
S    1    1.000000
   4.56324000E+03    1.96665000E-03 
S    1    1.000000
   6.82024000E+02    1.52306000E-02 
S    1    1.000000
   1.54973000E+02    7.61269000E-02 
S    1    1.000000
   4.44553000E+01    2.60801000E-01 
S    1    1.000000
   1.30290000E+01    6.16462000E-01 
S    1    1.000000
   1.82773000E+00    2.21006000E-01 
SP   3    1.000000
   2.09642000E+01    1.14660000E-01   4.02487000E-02 
   4.80331000E+00    9.19999000E-01   2.37594000E-01 
   1.45933000E+00   -3.03068000E-03   8.15854000E-01 
SP   1    1.000000
   4.83456000E-01    1.00000000E+00   1.00000000E+00 
SP   1    1.000000
   1.45585000E-01    1.00000000E+00   1.00000000E+00 
SP   1    1.000000
   4.38000000E-02    1.00000000E+00   1.00000000E+00 
SP   1    1.000000
   1.31927711E-02    1.00000000E+00   1.00000000E+00 
D    1    1.000000
   6.26000000E-01    1.00000000E+00 

4    0
S    3    1.000000
   3.38650000E+01    2.54938000E-02 
   5.09479000E+00    1.90373000E-01 
   1.15879000E+00    8.52161000E-01 
S    1    1.000000
   3.25840000E-01    1.00000000E+00 
S    1    1.000000
   1.02741000E-01    1.00000000E+00 
S    1    1.000000
   3.60000000E-02    1.00000000E+00 
P    1    1.000000
   7.50000000E-01    1.00000000E+00 

5    0
S    1    1.000000
   4.56324000E+03    1.96665000E-03 
S    1    1.000000
   6.82024000E+02    1.52306000E-02 
S    1    1.000000
   1.54973000E+02    7.61269000E-02 
S    1    1.000000
   4.44553000E+01    2.60801000E-01 
S    1    1.000000
   1.30290000E+01    6.16462000E-01 
S    1    1.000000
   1.82773000E+00    2.21006000E-01 
SP   3    1.000000
   2.09642000E+01    1.14660000E-01   4.02487000E-02 
   4.80331000E+00    9.19999000E-01   2.37594000E-01 
   1.45933000E+00   -3.03068000E-03   8.15854000E-01 
SP   1    1.000000
   4.83456000E-01    1.00000000E+00   1.00000000E+00 
SP   1    1.000000
   1.45585000E-01    1.00000000E+00   1.00000000E+00 
SP   1    1.000000
   4.38000000E-02    1.00000000E+00   1.00000000E+00 
SP   1    1.000000
   1.31927711E-02    1.00000000E+00   1.00000000E+00 
D    1    1.000000
   6.26000000E-01    1.00000000E+00 

6    0
S    3    1.000000
   3.38650000E+01    2.54938000E-02 
   5.09479000E+00    1.90373000E-01 
   1.15879000E+00    8.52161000E-01 
S    1    1.000000
   3.25840000E-01    1.00000000E+00 
S    1    1.000000
   1.02741000E-01    1.00000000E+00 
S    1    1.000000
   3.60000000E-02    1.00000000E+00 
P    1    1.000000
   7.50000000E-01    1.00000000E+00 

7    0
S    1    1.000000
   4.56324000E+03    1.96665000E-03 
S    1    1.000000
   6.82024000E+02    1.52306000E-02 
S    1    1.000000
   1.54973000E+02    7.61269000E-02 
S    1    1.000000
   4.44553000E+01    2.60801000E-01 
S    1    1.000000
   1.30290000E+01    6.16462000E-01 
S    1    1.000000
   1.82773000E+00    2.21006000E-01 
SP   3    1.000000
   2.09642000E+01    1.14660000E-01   4.02487000E-02 
   4.80331000E+00    9.19999000E-01   2.37594000E-01 
   1.45933000E+00   -3.03068000E-03   8.15854000E-01 
SP   1    1.000000
   4.83456000E-01    1.00000000E+00   1.00000000E+00 
SP   1    1.000000
   1.45585000E-01    1.00000000E+00   1.00000000E+00 
SP   1    1.000000
   4.38000000E-02    1.00000000E+00   1.00000000E+00 
SP   1    1.000000
   1.31927711E-02    1.00000000E+00   1.00000000E+00 
D    1    1.000000
   6.26000000E-01    1.00000000E+00 

8    0
S    3    1.000000
   3.38650000E+01    2.54938000E-02 
   5.09479000E+00    1.90373000E-01 
   1.15879000E+00    8.52161000E-01 
S    1    1.000000
   3.25840000E-01    1.00000000E+00 
S    1    1.000000
   1.02741000E-01    1.00000000E+00 
S    1    1.000000
   3.60000000E-02    1.00000000E+00 
P    1    1.000000
   7.50000000E-01    1.00000000E+00 

9    0
S    1    1.000000
   4.56324000E+03    1.96665000E-03 
S    1    1.000000
   6.82024000E+02    1.52306000E-02 
S    1    1.000000
   1.54973000E+02    7.61269000E-02 
S    1    1.000000
   4.44553000E+01    2.60801000E-01 
S    1    1.000000
   1.30290000E+01    6.16462000E-01 
S    1    1.000000
   1.82773000E+00    2.21006000E-01 
SP   3    1.000000
   2.09642000E+01    1.14660000E-01   4.02487000E-02 
   4.80331000E+00    9.19999000E-01   2.37594000E-01 
   1.45933000E+00   -3.03068000E-03   8.15854000E-01 
SP   1    1.000000
   4.83456000E-01    1.00000000E+00   1.00000000E+00 
SP   1    1.000000
   1.45585000E-01    1.00000000E+00   1.00000000E+00 
SP   1    1.000000
   4.38000000E-02    1.00000000E+00   1.00000000E+00 
SP   1    1.000000
   1.31927711E-02    1.00000000E+00   1.00000000E+00 
D    1    1.000000
   6.26000000E-01    1.00000000E+00 

10    0
S    3    1.000000
   3.38650000E+01    2.54938000E-02 
   5.09479000E+00    1.90373000E-01 
   1.15879000E+00    8.52161000E-01 
S    1    1.000000
   3.25840000E-01    1.00000000E+00 
S    1    1.000000
   1.02741000E-01    1.00000000E+00 
S    1    1.000000
   3.60000000E-02    1.00000000E+00 
P    1    1.000000
   7.50000000E-01    1.00000000E+00 

11    0
S    1    1.000000
   4.56324000E+03    1.96665000E-03 
S    1    1.000000
   6.82024000E+02    1.52306000E-02 
S    1    1.000000
   1.54973000E+02    7.61269000E-02 
S    1    1.000000
   4.44553000E+01    2.60801000E-01 
S    1    1.000000
   1.30290000E+01    6.16462000E-01 
S    1    1.000000
   1.82773000E+00    2.21006000E-01 
SP   3    1.000000
   2.09642000E+01    1.14660000E-01   4.02487000E-02 
   4.80331000E+00    9.19999000E-01   2.37594000E-01 
   1.45933000E+00   -3.03068000E-03   8.15854000E-01 
SP   1    1.000000
   4.83456000E-01    1.00000000E+00   1.00000000E+00 
SP   1    1.000000
   1.45585000E-01    1.00000000E+00   1.00000000E+00 
SP   1    1.000000
   4.38000000E-02    1.00000000E+00   1.00000000E+00 
SP   1    1.000000
   1.31927711E-02    1.00000000E+00   1.00000000E+00 
D    1    1.000000
   6.26000000E-01    1.00000000E+00 

12    0
S    6    1.000000
   1.05819000E+05    7.38000000E-04 
   1.58720000E+04    5.71800000E-03 
   3.61965000E+03    2.94950000E-02 
   1.03080000E+03    1.17286000E-01 
   3.39908000E+02    3.62949000E-01 
   1.24538000E+02    5.84149000E-01 
S    3    1.000000
   1.24538000E+02    1.34177000E-01 
   4.95135000E+01    6.24250000E-01 
   2.08056000E+01    2.91756000E-01 
S    1    1.000000
   6.58346000E+00    1.00000000E+00 
S    1    1.000000
   2.56468000E+00    1.00000000E+00 
S    1    1.000000
   5.59763000E-01    1.00000000E+00 
S    1    1.000000
   1.83273000E-01    1.00000000E+00 
P    5    1.000000
   5.89776000E+02    2.39100000E-03 
   1.39849000E+02    1.85040000E-02 
   4.51413000E+01    8.13770000E-02 
   1.68733000E+01    2.21552000E-01 
   6.74110000E+00    7.72569000E-01 
P    2    1.000000
   6.74110000E+00   -1.57224400E+00 
   2.77152000E+00    9.92389000E-01 
P    1    1.000000
   1.02387000E+00    1.00000000E+00 
P    1    1.000000
   3.81368000E-01    1.00000000E+00 
P    1    1.000000
   1.09437000E-01    1.00000000E+00 
SP   1    1.000000
   4.83000000E-02    1.00000000E+00   1.00000000E+00 
SP   1    1.000000
   1.45481928E-02    1.00000000E+00   1.00000000E+00 
D    1    1.000000
   7.50000000E-01    1.00000000E+00 

[MO]
Sym=X
Ene= 2.000916
Spin=Alpha
Occup=1
     1   -1.366428370286e-12
     2   -2.285185385161e-12
     3   -7.618137967162e-13
     4    3.650170935790e-12
     5   -1.753700055611e-13
     6   -5.450773018860e-03
     7   -4.013830844287e-14
     8   -1.570747005051e-15
     9   -7.236867172627e-15
    10   -4.362749626446e-14
    11   -1.448743914029e-13
    12   -3.721244015803e-13
    13   -1.394648437516e-13
    14   -5.232333532573e-13
    15    3.105932751939e-13
    16   -7.952499530892e-02
    17   -2.704882523043e-12
    18    3.898569970472e-13
    19    5.322613028882e-13
    20   -1.363511687842e-01
    21   -4.058842624818e-12
    22    1.936514577764e-12
    23    1.092723780371e-12
    24   -1.238775908815e-01
    25   -2.487929255566e-12
    26   -3.074142858830e-12
    27    8.264829896521e-13
    28    2.671472102439e-02
    29   -6.184531264182e-12
    30    1.530653504257e-13
    31    4.002394990174e-12
    32   -7.709676200832e-02
    33    5.096798561196e-12
    34    4.691345114076e-13
    35    2.024919845663e-13
    36    4.694245544810e-03
    37   -2.270353774881e-13
    38   -1.299421800002e-02
    39    1.582417641183e-16
    40   -2.170773019224e-15
    41   -6.629615802737e-15
    42   -2.577371839135e-14
    43   -4.118264775558e-14
    44    8.053309996407e-15
    45   -1.110012258937e-13
    46   -2.858165646264e-13
    47   -4.746396961048e-02
    48    2.744664236959e-12
    49   -1.622054725085e-13
    50   -3.841105336199e-13
    51   -8.169873245761e-02
    52    4.094885064763e-12
    53    4.182590117076e-13
    54    6.404945491005e-13
    55   -5.058863023745e-02
    56    2.742149439442e-12
    57    5.945336925721e-12
    58    5.845131836896e-12
    59   -2.117410097846e-02
    60    1.812217592031e-12
    61   -1.004646919833e-12
    62   -1.411730245877e-12
    63    6.369569345348e-02
    64   -1.274655278720e-12
    65    5.719454739581e-13
    66   -1.310386471400e-13
    67   -1.112500647796e-02
    68   -3.222765373413e-13
    69   -5.998340987205e-03
    70   -1.201636915052e-12
    71   -1.929566729105e-12
    72   -3.889599613798e-13
    73    4.778904386453e-12
    74   -1.984487632903e-13
    75   -3.083640111809e-03
    76    1.126617551869e-13
    77    9.953187597451e-17
    78   -1.322921681984e-15
    79   -8.837016336581e-15
    80   -2.441278943337e-14
    81   -6.637063699439e-14
    82   -1.161383454784e-14
    83   -1.520151834255e-13
    84    2.434586132126e-14
    85   -3.175768396753e-02
    86   -3.107005197729e-12
    87    1.815630169255e-13
    88   -2.425627773731e-14
    89   -3.985054086001e-02
    90   -4.811142753264e-12
    91   -1.280952400819e-13
    92    2.166617213524e-13
    93   -4.752448225994e-03
    94   -4.396221008228e-12
    95   -1.478611158695e-11
    96    4.620816973467e-13
    97    3.010106419373e-02
    98   -2.923139170744e-12
    99   -3.878277824491e-12
   100   -3.793198862976e-13
   101   -5.515824434293e-02
   102    9.514671391479e-13
   103    8.177797084749e-13
   104    2.962774518499e-14
   105   -1.021417972067e-02
   106   -4.731739592916e-13
   107   -2.234996264989e-16
   108    2.989128994759e-12
   109    4.518379976590e-12
   110    1.429320502072e-12
   111    1.968310300785e-12
   112   -2.295059627755e-15
   113   -8.708697236926e-04
   114    3.146103987504e-13
   115    3.551209635135e-16
   116   -1.825479240454e-15
   117   -3.871551432234e-15
   118   -1.226367293577e-14
   119   -5.539389159213e-14
   120   -6.668569316747e-14
   121   -3.389124436616e-14
   122    1.839619974191e-13
   123   -4.746396961051e-02
   124    3.007597207499e-12
   125    2.914835883746e-13
   126    2.077936841424e-13
   127   -8.169873245758e-02
   128    4.564869038086e-12
   129    2.067696509303e-13
   130   -1.003397996820e-12
   131   -5.058863023745e-02
   132    3.157383773946e-12
   133    5.074045172196e-12
   134   -3.814112657742e-12
   135   -2.117410097848e-02
   136    2.955798939861e-12
   137   -1.885067890861e-12
   138    5.649323780234e-13
   139    6.369569345359e-02
   140   -2.429514652860e-12
   141    6.104334873436e-13
   142    2.518080943447e-13
   143   -1.112500647794e-02
   144   -3.338333550042e-13
   145    5.998340987168e-03
   146   -1.386212186172e-12
   147   -2.281476188999e-12
   148   -2.355142728639e-13
   149    5.172753494877e-12
   150    1.834649273215e-13
   151   -3.083640111843e-03
   152    1.090760622371e-13
   153   -1.215705927094e-16
   154   -1.189432578666e-15
   155   -7.572937328233e-15
   156   -2.305993175115e-14
   157   -6.913345529932e-14
   158   -6.549838009955e-14
   159   -1.501480104747e-13
   160    6.921116166035e-13
   161   -7.952499530878e-02
   162   -3.025269591932e-12
   163    6.708806688042e-13
   164    1.005851314440e-12
   165   -1.363511687842e-01
   166   -4.534623940875e-12
   167   -4.184120849420e-13
   168    2.873544643000e-13
   169   -1.238775908811e-01
   170   -3.176911591842e-12
   171    1.946718958295e-11
   172   -7.302020319607e-12
   173    2.671472102477e-02
   174   -9.307524258391e-13
   175    5.330242571194e-14
   176    1.125104741571e-12
   177   -7.709676200932e-02
   178    7.607743155385e-12
   179    5.025495150574e-13
   180   -4.920627776760e-14
   181    4.694245544817e-03
   182   -2.484951097105e-13
   183    1.299421800000e-02
   184   -8.512176068776e-13
   185   -1.623230586515e-12
   186    3.296832859355e-13
   187    3.187248801634e-12
   188    1.255928002376e-13
   189   -5.450773018853e-03
   190   -1.103099551477e-13
   191    2.530281690924e-16
   192    7.757111966563e-15
   193    3.292805947590e-14
   194    1.203815431719e-13
   195    2.524358692457e-13
   196    1.728270763326e-14
   197    6.504793913423e-13
   198   -5.695570746620e-13
   199   -6.907927097647e-02
   200    1.940308655413e-12
   201   -9.234881941893e-13
   202   -8.724721185712e-13
   203   -1.164147919754e-01
   204    3.445859224840e-12
   205   -5.332986428347e-13
   206    1.766536795999e-13
   207   -1.043975498777e-01
   208    3.200881606904e-12
   209   -5.477937943374e-12
   210   -7.292740359293e-12
   211   -3.968048093767e-02
   212    2.472292976646e-11
   213   -1.936774425691e-12
   214   -2.424168417173e-12
   215    5.773427376138e-02
   216   -1.542397574253e-11
   217    8.644252817287e-13
   218    1.605613921948e-13
   219    3.166840404488e-02
   220   -3.876973957397e-13
   221    1.653186071292e-14
   222   -1.325745285522e-13
   223   -5.371179159764e-13
   224    1.323496863721e-12
   225    1.902797207504e-12
   226   -1.314354872665e-12
   227   -2.511303073115e-12
   228   -8.212003828202e-13
   229   -2.682583493350e-01
   230    4.148186905814e-12
   231   -1.873913483386e-13
   232   -6.422928656312e-02
   233    1.014502017252e-12
   234    9.659325421865e-13
   235    1.953965100680e-01
   236   -2.896210293685e-12
   237    2.213734552592e-12
   238    4.725983679315e-01
   239   -6.577557236733e-12
   240    1.538825330407e-12
   241    3.315392775775e-01
   242   -2.510877021893e-12
   243   -2.509795059814e-11
   244   -6.576208438908e-15
   245   -5.171870042763e-02
   246    6.103507745022e-12
   247    4.350408210551e-12
   248   -1.511753778972e-13
   249    3.466861402283e-02
   250    2.194824689640e-12
   251    7.572195827602e-13
   252    1.692607918988e-14
   253    2.187453886163e-04
   254   -6.132135259043e-14
   255    4.439771815357e-15
Sym=X
Ene= 2.000236
Spin=Alpha
Occup=1
     1    8.697349175908e-02
     2    1.324134361289e-01
     3    3.303353160353e-02
     4   -2.869974679453e-02
     5    6.414501427566e-03
     6   -2.726997938479e-14
     7   -1.052570084535e-02
     8   -1.319960520099e-05
     9   -1.002928354908e-04
    10   -5.272101099291e-04
    11   -1.730540704653e-03
    12   -4.057195786063e-03
    13   -3.656938220761e-04
    14   -1.179923930387e-02
    15   -1.226000187773e-01
    16   -3.629361815799e-13
    17   -2.884612830146e-02
    18    2.214575880134e-02
    19   -1.925209404360e-01
    20   -6.303602710495e-13
    21   -4.258931681729e-02
    22    1.402811450152e-01
    23   -7.572231418052e-02
    24   -4.738089038842e-13
    25    3.694923161815e-02
    26   -9.266627224653e-01
    27   -3.396525557342e-01
    28    4.266857880033e-14
    29   -3.731264125429e-01
    30   -2.271484813584e-02
    31   -4.816494520038e-02
    32    5.825852144130e-12
    33   -9.414393472819e-03
    34    1.825880502314e-03
    35   -2.008827307406e-02
    36   -6.790805300847e-15
    37    1.007349323677e-04
    38   -6.832141671134e-14
    39    2.678615440064e-06
    40    2.012930922738e-05
    41    1.080229164135e-04
    42    3.480116899694e-04
    43    8.652595365663e-04
    44    3.716800107153e-04
    45    2.529380062010e-03
    46   -5.491683275588e-03
    47   -1.999639942285e-13
    48    3.400228905170e-02
    49   -6.621830365724e-03
    50   -8.392449554034e-03
    51   -3.493069402286e-13
    52    5.090610869818e-02
    53   -2.038402137556e-02
    54   -9.114759249251e-03
    55   -2.205911757517e-13
    56    3.797978821010e-02
    57    6.496178521475e-02
    58    1.911241657358e-01
    59   -1.208226715038e-13
    60   -2.154691754981e-01
    61    4.450585352762e-03
    62    3.731890170826e-02
    63   -5.800248167035e-12
    64   -3.412802818848e-03
    65    3.112133058675e-03
    66   -1.201983740950e-02
    67   -5.025645072154e-14
    68   -2.353350447148e-03
    69   -2.420765666418e-15
    70   -1.803242907974e-02
    71   -3.378263393237e-02
    72   -1.867125852149e-02
    73    1.550492006344e-02
    74   -1.149258159126e-03
    75   -2.500398867358e-14
    76    6.364624214511e-05
    77    1.156135466885e-14
    78    9.204153708184e-14
    79    4.676074869160e-13
    80    1.619026018054e-12
    81    2.308929514760e-12
    82   -8.010128210556e-12
    83    1.542483819762e-11
    84    2.468075461947e-02
    85   -7.386547259150e-14
    86    1.156693728661e-11
    87    1.640414989003e-11
    88    3.131999508397e-02
    89   -9.907956014778e-14
    90   -2.342281495179e-12
    91   -9.559880654144e-10
    92   -2.359468838799e-02
    93    1.054033299875e-14
    94    3.057377192353e-10
    95    7.689853453233e-09
    96    2.626103978529e-01
    97    1.644706798414e-13
    98    6.392374093452e-09
    99    1.380381154299e-10
   100   -2.238334722688e-02
   101    5.666708078697e-12
   102    1.070155497413e-10
   103   -4.882549342083e-12
   104    2.626555695845e-03
   105   -2.541550517695e-14
   106    6.242369013127e-12
   107    9.194341217421e-15
   108   -2.893913995260e-15
   109   -5.485921315213e-11
   110    1.427025175700e-09
   111    3.980467274657e-09
   112    7.073193070079e-04
   113   -1.102551595150e-14
   114   -2.005939333581e-12
   115   -2.678615438056e-06
   116   -2.012930921065e-05
   117   -1.080229163383e-04
   118   -3.480116896524e-04
   119   -8.652595373090e-04
   120   -3.716800195888e-04
   121   -2.529380052884e-03
   122   -5.491683293715e-03
   123   -8.916618029007e-14
   124   -3.400228909000e-02
   125    6.621830390605e-03
   126   -8.392449581961e-03
   127   -1.533096529320e-13
   128   -5.090610875610e-02
   129    2.038402037025e-02
   130   -9.114759570906e-03
   131   -7.454175712951e-14
   132   -3.797978918774e-02
   133   -6.496179466914e-02
   134    1.911241675221e-01
   135   -1.098651199091e-13
   136    2.154691736465e-01
   137   -4.450586661540e-03
   138    3.731890191218e-02
   139   -5.791983511205e-12
   140    3.412802716099e-03
   141   -3.112133042757e-03
   142   -1.201983740463e-02
   143   -3.976671981297e-14
   144    2.353350439599e-03
   145    3.257135051824e-14
   146    1.803242906616e-02
   147    3.378263386361e-02
   148    1.867125878254e-02
   149   -1.550492036917e-02
   150   -1.149258162404e-03
   151    1.012987687440e-14
   152   -6.364624374200e-05
   153    1.319960518189e-05
   154    1.002928353451e-04
   155    5.272101091857e-04
   156    1.730540702135e-03
   157    4.057195781039e-03
   158    3.656938259167e-04
   159    1.179923928676e-02
   160   -1.226000187376e-01
   161   -2.519899641611e-13
   162    2.884612826170e-02
   163   -2.214575879772e-02
   164   -1.925209404080e-01
   165   -4.348421717427e-13
   166    4.258931676894e-02
   167   -1.402811441225e-01
   168   -7.572231319758e-02
   169   -3.091644621549e-13
   170   -3.694923261417e-02
   171    9.266627146987e-01
   172   -3.396525488868e-01
   173    7.503862071255e-14
   174    3.731264165793e-01
   175    2.271484717785e-02
   176   -4.816494478067e-02
   177    5.822994227553e-12
   178    9.414394039758e-03
   179   -1.825880519071e-03
   180   -2.008827308086e-02
   181    3.847995310253e-15
   182   -1.007349316648e-04
   183    6.497113652572e-14
   184   -8.697349176769e-02
   185   -1.324134360810e-01
   186   -3.303353329448e-02
   187    2.869974133934e-02
   188    6.414501426128e-03
   189   -1.678974955221e-14
   190    1.052570083840e-02
   191   -7.051317368008e-15
   192   -5.492092621037e-14
   193   -2.732876086720e-13
   194   -9.554610240452e-13
   195   -1.161496318244e-12
   196    6.264544164103e-12
   197   -1.129904465047e-11
   198    1.424221875206e-01
   199   -4.354646821050e-13
   200   -1.257411923068e-12
   201   -1.331797177697e-11
   202    2.172410970560e-01
   203   -7.600347307314e-13
   204    8.609696585961e-12
   205    1.026483141859e-09
   206    2.334656228893e-01
   207   -6.452203493008e-13
   208   -1.915005610000e-10
   209    7.926980295000e-09
   210   -8.588600315621e-01
   211   -2.831459117307e-14
   212   -4.957352479637e-09
   213    1.831022220870e-12
   214    3.904461205800e-02
   215   -5.592611461925e-12
   216   -1.741264728299e-09
   217    9.931364197928e-12
   218   -7.661408459931e-03
   219    3.494041290103e-14
   220   -9.693882024761e-12
   221    2.825562755004e-14
   222    1.193960269269e-12
   223    2.733561133610e-12
   224   -2.001230949957e-12
   225   -9.874894449950e-12
   226    3.507462886606e-11
   227   -1.885350971803e-10
   228   -1.562226947319e-01
   229    9.244556964475e-12
   230    5.073084182580e-12
   231   -3.765949873671e-02
   232    2.454428113819e-12
   233    9.959715937629e-13
   234    1.115115190504e-01
   235    2.146287851817e-13
   236   -1.437594362940e-11
   237    2.625584810323e-01
   238   -3.526464754134e-13
   239   -2.980970458709e-11
   240    1.379300850024e-01
   241   -8.903657407268e-14
   242    8.700052283090e-11
   243    3.112212594749e-09
   244    2.436046908193e-02
   245    1.126446659991e-15
   246   -7.961115270314e-10
   247    2.656421949801e-09
   248   -4.408727595477e-03
   249   -2.002258457990e-13
   250   -1.766846917692e-10
   251    5.165360717008e-12
   252   -1.722312735861e-02
   253    4.840051316373e-14
   254   -1.323493340609e-11
   255   -8.874532729441e-15
Sym=X
Ene= 2.000028
Spin=Alpha
Occup=1
     1    9.054429864732e-03
     2    1.125964954977e-02
     3   -3.460660780420e-03
     4    3.872389686623e-02
     5    8.277213788238e-04
     6   -5.805077035344e-14
     7   -6.928214295599e-04
     8    1.383095924484e-05
     9    1.047906543834e-04
    10    5.529547108182e-04
    11    1.811888062407e-03
    12    4.416668104132e-03
    13    1.450594449325e-03
    14    1.175274544267e-02
    15   -2.270488574045e-02
    16   -7.715173648388e-13
    17   -3.800003869322e-03
    18   -2.784758001152e-02
    19   -3.407869289345e-02
    20   -1.358020795145e-12
    21   -3.456195056476e-03
    22   -4.143184431317e-02
    23   -3.814656893591e-02
    24   -9.064356864212e-13
    25    1.764130836734e-02
    26   -2.902336801931e-02
    27    5.894706614765e-02
    28   -2.648913945663e-13
    29    4.544711313551e-02
    30    1.742060681750e-02
    31    2.110425480370e-04
    32    7.136426418831e-13
    33   -4.276503591687e-02
    34    1.256511373708e-03
    35   -1.825911575820e-03
    36    4.081540320253e-14
    37   -3.219773161297e-03
    38   -1.398332998623e-13
    39    7.349982328685e-06
    40    5.580686250854e-05
    41    2.936785323703e-04
    42    9.659101121930e-04
    43    2.320711695103e-03
    44    6.391554783476e-04
    45    6.366168813784e-03
    46    8.583469767694e-04
    47   -6.131191705513e-13
    48    6.840099502297e-04
    49   -1.487478178489e-02
    50    2.022290457304e-03
    51   -1.045933147708e-12
    52    2.586734984553e-03
    53    8.171985393786e-03
    54    2.544542268594e-03
    55   -7.666001339307e-13
    56    6.022673791316e-03
    57    7.003932879693e-02
    58   -3.188967208533e-02
    59    1.204272848237e-13
    60    4.283460304642e-02
    61    3.218079571402e-02
    62    1.066673083290e-02
    63   -4.380130407976e-13
    64    1.139527069912e-02
    65   -7.247124160845e-04
    66   -2.083368603378e-03
    67   -8.175475878805e-14
    68   -1.039454394016e-03
    69   -8.428940507169e-14
    70   -5.172457639794e-03
    71   -8.884656143599e-03
    72   -5.096198869376e-03
    73   -5.869161165683e-03
    74   -5.929893110590e-04
    75   -4.196564969644e-14
    76   -3.819454063797e-04
    77    4.572300894157e-06
    78    3.505552770566e-05
    79    1.822113629068e-04
    80    6.199118433867e-04
    81    1.498684868299e-03
    82   -5.424387547796e-04
    83    3.793496488414e-03
    84   -1.327545704201e-12
    85   -5.607189298598e-13
    86    1.133014618314e-04
    87   -7.618162817164e-03
    88   -4.480940787379e-13
    89   -9.435511298112e-13
    90    7.149429919566e-04
    91   -3.432100885346e-03
    92   -2.001277671703e-11
    93   -5.797563324188e-13
    94   -1.298310245916e-03
    95    1.297057410401e-01
    96    6.465430346616e-11
    97   -9.664011112731e-14
    98    1.779681478156e-02
    99    4.068134483895e-02
   100   -1.705572543090e-12
   101    4.153092526665e-13
   102    1.025474598293e-02
   103    1.012232756559e-04
   104   -5.482699918971e-13
   105   -1.115856262838e-13
   106   -1.497746111151e-03
   107   -4.959974335325e-15
   108   -1.246557065352e-03
   109   -1.753750711553e-03
   110   -8.900325240824e-04
   111    7.643794481721e-03
   112   -2.460662081773e-13
   113   -4.056111266844e-14
   114   -2.398662961916e-04
   115    7.349982201938e-06
   116    5.580686152725e-05
   117    2.936785274851e-04
   118    9.659100953759e-04
   119    2.320711655424e-03
   120    6.391554637006e-04
   121    6.366168763330e-03
   122   -8.583469769218e-04
   123   -6.449235256813e-13
   124    6.840099500406e-04
   125   -1.487478179730e-02
   126   -2.022290455240e-03
   127   -1.097256877510e-12
   128    2.586734982844e-03
   129    8.171985407018e-03
   130   -2.544542300189e-03
   131   -8.135938507103e-13
   132    6.022673801701e-03
   133    7.003932962171e-02
   134    3.188967167009e-02
   135    1.116611678540e-13
   136    4.283460344775e-02
   137    3.218079577599e-02
   138   -1.066673085573e-02
   139   -4.301100013861e-13
   140    1.139527069211e-02
   141   -7.247124167771e-04
   142    2.083368603775e-03
   143   -8.561085167893e-14
   144   -1.039454393927e-03
   145    8.665687487802e-14
   146   -5.172457642451e-03
   147   -8.884656151320e-03
   148   -5.096198789242e-03
   149   -5.869160809741e-03
   150    5.929893119534e-04
   151   -4.432860939663e-14
   152   -3.819454065585e-04
   153    1.383095904968e-05
   154    1.047906528743e-04
   155    5.529547033005e-04
   156    1.811888036563e-03
   157    4.416668043120e-03
   158    1.450594427080e-03
   159    1.175274536401e-02
   160    2.270488574258e-02
   161   -7.980610112527e-13
   162   -3.800003868936e-03
   163   -2.784758002576e-02
   164    3.407869289740e-02
   165   -1.406943066058e-12
   166   -3.456195056077e-03
   167   -4.143184433497e-02
   168    3.814656895391e-02
   169   -9.508968650620e-13
   170    1.764130838475e-02
   171   -2.902336950148e-02
   172   -5.894706573976e-02
   173   -2.672425167133e-13
   174    4.544711332301e-02
   175    1.742060676510e-02
   176   -2.110425327454e-04
   177    7.078638948260e-13
   178   -4.276503586495e-02
   179    1.256511373168e-03
   180    1.825911575291e-03
   181    4.605388815472e-14
   182   -3.219773161799e-03
   183    1.409334203939e-13
   184    9.054429862272e-03
   185    1.125964954534e-02
   186   -3.460660821388e-03
   187    3.872389665392e-02
   188   -8.277213784548e-04
   189   -6.057520271874e-14
   190   -6.928214292086e-04
   191    1.265426091520e-05
   192    9.269011498155e-05
   193    5.295665926922e-04
   194    1.615396362766e-03
   195    4.159408526453e-03
   196    1.608606735283e-03
   197    1.804378897868e-02
   198   -2.468588523947e-12
   199   -9.747377153811e-13
   200    2.757850052117e-02
   201   -7.224558569062e-02
   202   -3.504636699144e-12
   203   -1.679847704420e-12
   204    5.431596778368e-02
   205   -6.954789930093e-02