[Molden Format]
[Atoms] (Angs)
  H      1    1     -2.14003202      0.00000000      0.38146042
  C      2    6     -1.21205832      0.00000000     -0.17180643
  C      3    6     -1.20429565      0.00000000     -1.56369320
  H      4    1     -2.14371879      0.00000000     -2.09923439
  C      5    6     -0.00000000      0.00000000     -2.26269040
  H      6    1     -0.00000000      0.00000000     -3.34354440
  C      7    6      1.20429565      0.00000000     -1.56369320
  H      8    1      2.14371879      0.00000000     -2.09923439
  C      9    6      1.21205832     -0.00000000     -0.17180643
  H     10    1      2.14003202     -0.00000000      0.38146042
  C     11    6      0.00000000     -0.00000000      0.51110416
 Cl     12   17      0.00000000     -0.00000000      2.24203561
[GTO]
1    0
S    3    1.000000
   3.38650000E+01    2.54938000E-02 
   5.09479000E+00    1.90373000E-01 
   1.15879000E+00    8.52161000E-01 
S    1    1.000000
   3.25840000E-01    1.00000000E+00 
S    1    1.000000
   1.02741000E-01    1.00000000E+00 
S    1    1.000000
   3.60000000E-02    1.00000000E+00 
P    1    1.000000
   7.50000000E-01    1.00000000E+00 

2    0
S    1    1.000000
   4.56324000E+03    1.96665000E-03 
S    1    1.000000
   6.82024000E+02    1.52306000E-02 
S    1    1.000000
   1.54973000E+02    7.61269000E-02 
S    1    1.000000
   4.44553000E+01    2.60801000E-01 
S    1    1.000000
   1.30290000E+01    6.16462000E-01 
S    1    1.000000
   1.82773000E+00    2.21006000E-01 
SP   3    1.000000
   2.09642000E+01    1.14660000E-01   4.02487000E-02 
   4.80331000E+00    9.19999000E-01   2.37594000E-01 
   1.45933000E+00   -3.03068000E-03   8.15854000E-01 
SP   1    1.000000
   4.83456000E-01    1.00000000E+00   1.00000000E+00 
SP   1    1.000000
   1.45585000E-01    1.00000000E+00   1.00000000E+00 
SP   1    1.000000
   4.38000000E-02    1.00000000E+00   1.00000000E+00 
SP   1    1.000000
   1.31927711E-02    1.00000000E+00   1.00000000E+00 
D    1    1.000000
   6.26000000E-01    1.00000000E+00 

3    0
S    1    1.000000
   4.56324000E+03    1.96665000E-03 
S    1    1.000000
   6.82024000E+02    1.52306000E-02 
S    1    1.000000
   1.54973000E+02    7.61269000E-02 
S    1    1.000000
   4.44553000E+01    2.60801000E-01 
S    1    1.000000
   1.30290000E+01    6.16462000E-01 
S    1    1.000000
   1.82773000E+00    2.21006000E-01 
SP   3    1.000000
   2.09642000E+01    1.14660000E-01   4.02487000E-02 
   4.80331000E+00    9.19999000E-01   2.37594000E-01 
   1.45933000E+00   -3.03068000E-03   8.15854000E-01 
SP   1    1.000000
   4.83456000E-01    1.00000000E+00   1.00000000E+00 
SP   1    1.000000
   1.45585000E-01    1.00000000E+00   1.00000000E+00 
SP   1    1.000000
   4.38000000E-02    1.00000000E+00   1.00000000E+00 
SP   1    1.000000
   1.31927711E-02    1.00000000E+00   1.00000000E+00 
D    1    1.000000
   6.26000000E-01    1.00000000E+00 

4    0
S    3    1.000000
   3.38650000E+01    2.54938000E-02 
   5.09479000E+00    1.90373000E-01 
   1.15879000E+00    8.52161000E-01 
S    1    1.000000
   3.25840000E-01    1.00000000E+00 
S    1    1.000000
   1.02741000E-01    1.00000000E+00 
S    1    1.000000
   3.60000000E-02    1.00000000E+00 
P    1    1.000000
   7.50000000E-01    1.00000000E+00 

5    0
S    1    1.000000
   4.56324000E+03    1.96665000E-03 
S    1    1.000000
   6.82024000E+02    1.52306000E-02 
S    1    1.000000
   1.54973000E+02    7.61269000E-02 
S    1    1.000000
   4.44553000E+01    2.60801000E-01 
S    1    1.000000
   1.30290000E+01    6.16462000E-01 
S    1    1.000000
   1.82773000E+00    2.21006000E-01 
SP   3    1.000000
   2.09642000E+01    1.14660000E-01   4.02487000E-02 
   4.80331000E+00    9.19999000E-01   2.37594000E-01 
   1.45933000E+00   -3.03068000E-03   8.15854000E-01 
SP   1    1.000000
   4.83456000E-01    1.00000000E+00   1.00000000E+00 
SP   1    1.000000
   1.45585000E-01    1.00000000E+00   1.00000000E+00 
SP   1    1.000000
   4.38000000E-02    1.00000000E+00   1.00000000E+00 
SP   1    1.000000
   1.31927711E-02    1.00000000E+00   1.00000000E+00 
D    1    1.000000
   6.26000000E-01    1.00000000E+00 

6    0
S    3    1.000000
   3.38650000E+01    2.54938000E-02 
   5.09479000E+00    1.90373000E-01 
   1.15879000E+00    8.52161000E-01 
S    1    1.000000
   3.25840000E-01    1.00000000E+00 
S    1    1.000000
   1.02741000E-01    1.00000000E+00 
S    1    1.000000
   3.60000000E-02    1.00000000E+00 
P    1    1.000000
   7.50000000E-01    1.00000000E+00 

7    0
S    1    1.000000
   4.56324000E+03    1.96665000E-03 
S    1    1.000000
   6.82024000E+02    1.52306000E-02 
S    1    1.000000
   1.54973000E+02    7.61269000E-02 
S    1    1.000000
   4.44553000E+01    2.60801000E-01 
S    1    1.000000
   1.30290000E+01    6.16462000E-01 
S    1    1.000000
   1.82773000E+00    2.21006000E-01 
SP   3    1.000000
   2.09642000E+01    1.14660000E-01   4.02487000E-02 
   4.80331000E+00    9.19999000E-01   2.37594000E-01 
   1.45933000E+00   -3.03068000E-03   8.15854000E-01 
SP   1    1.000000
   4.83456000E-01    1.00000000E+00   1.00000000E+00 
SP   1    1.000000
   1.45585000E-01    1.00000000E+00   1.00000000E+00 
SP   1    1.000000
   4.38000000E-02    1.00000000E+00   1.00000000E+00 
SP   1    1.000000
   1.31927711E-02    1.00000000E+00   1.00000000E+00 
D    1    1.000000
   6.26000000E-01    1.00000000E+00 

8    0
S    3    1.000000
   3.38650000E+01    2.54938000E-02 
   5.09479000E+00    1.90373000E-01 
   1.15879000E+00    8.52161000E-01 
S    1    1.000000
   3.25840000E-01    1.00000000E+00 
S    1    1.000000
   1.02741000E-01    1.00000000E+00 
S    1    1.000000
   3.60000000E-02    1.00000000E+00 
P    1    1.000000
   7.50000000E-01    1.00000000E+00 

9    0
S    1    1.000000
   4.56324000E+03    1.96665000E-03 
S    1    1.000000
   6.82024000E+02    1.52306000E-02 
S    1    1.000000
   1.54973000E+02    7.61269000E-02 
S    1    1.000000
   4.44553000E+01    2.60801000E-01 
S    1    1.000000
   1.30290000E+01    6.16462000E-01 
S    1    1.000000
   1.82773000E+00    2.21006000E-01 
SP   3    1.000000
   2.09642000E+01    1.14660000E-01   4.02487000E-02 
   4.80331000E+00    9.19999000E-01   2.37594000E-01 
   1.45933000E+00   -3.03068000E-03   8.15854000E-01 
SP   1    1.000000
   4.83456000E-01    1.00000000E+00   1.00000000E+00 
SP   1    1.000000
   1.45585000E-01    1.00000000E+00   1.00000000E+00 
SP   1    1.000000
   4.38000000E-02    1.00000000E+00   1.00000000E+00 
SP   1    1.000000
   1.31927711E-02    1.00000000E+00   1.00000000E+00 
D    1    1.000000
   6.26000000E-01    1.00000000E+00 

10    0
S    3    1.000000
   3.38650000E+01    2.54938000E-02 
   5.09479000E+00    1.90373000E-01 
   1.15879000E+00    8.52161000E-01 
S    1    1.000000
   3.25840000E-01    1.00000000E+00 
S    1    1.000000
   1.02741000E-01    1.00000000E+00 
S    1    1.000000
   3.60000000E-02    1.00000000E+00 
P    1    1.000000
   7.50000000E-01    1.00000000E+00 

11    0
S    1    1.000000
   4.56324000E+03    1.96665000E-03 
S    1    1.000000
   6.82024000E+02    1.52306000E-02 
S    1    1.000000
   1.54973000E+02    7.61269000E-02 
S    1    1.000000
   4.44553000E+01    2.60801000E-01 
S    1    1.000000
   1.30290000E+01    6.16462000E-01 
S    1    1.000000
   1.82773000E+00    2.21006000E-01 
SP   3    1.000000
   2.09642000E+01    1.14660000E-01   4.02487000E-02 
   4.80331000E+00    9.19999000E-01   2.37594000E-01 
   1.45933000E+00   -3.03068000E-03   8.15854000E-01 
SP   1    1.000000
   4.83456000E-01    1.00000000E+00   1.00000000E+00 
SP   1    1.000000
   1.45585000E-01    1.00000000E+00   1.00000000E+00 
SP   1    1.000000
   4.38000000E-02    1.00000000E+00   1.00000000E+00 
SP   1    1.000000
   1.31927711E-02    1.00000000E+00   1.00000000E+00 
D    1    1.000000
   6.26000000E-01    1.00000000E+00 

12    0
S    6    1.000000
   1.05819000E+05    7.38000000E-04 
   1.58720000E+04    5.71800000E-03 
   3.61965000E+03    2.94950000E-02 
   1.03080000E+03    1.17286000E-01 
   3.39908000E+02    3.62949000E-01 
   1.24538000E+02    5.84149000E-01 
S    3    1.000000
   1.24538000E+02    1.34177000E-01 
   4.95135000E+01    6.24250000E-01 
   2.08056000E+01    2.91756000E-01 
S    1    1.000000
   6.58346000E+00    1.00000000E+00 
S    1    1.000000
   2.56468000E+00    1.00000000E+00 
S    1    1.000000
   5.59763000E-01    1.00000000E+00 
S    1    1.000000
   1.83273000E-01    1.00000000E+00 
P    5    1.000000
   5.89776000E+02    2.39100000E-03 
   1.39849000E+02    1.85040000E-02 
   4.51413000E+01    8.13770000E-02 
   1.68733000E+01    2.21552000E-01 
   6.74110000E+00    7.72569000E-01 
P    2    1.000000
   6.74110000E+00   -1.57224400E+00 
   2.77152000E+00    9.92389000E-01 
P    1    1.000000
   1.02387000E+00    1.00000000E+00 
P    1    1.000000
   3.81368000E-01    1.00000000E+00 
P    1    1.000000
   1.09437000E-01    1.00000000E+00 
SP   1    1.000000
   4.83000000E-02    1.00000000E+00   1.00000000E+00 
SP   1    1.000000
   1.45481928E-02    1.00000000E+00   1.00000000E+00 
D    1    1.000000
   7.50000000E-01    1.00000000E+00 

[MO]
Sym=X
Ene= 2.000158
Spin=Alpha
Occup=1
     1   -7.980967583451e-03
     2   -1.242816304546e-02
     3   -4.269798751610e-03
     4    1.704515576791e-02
     5    2.557789197783e-04
     6    3.408424311519e-14
     7   -1.015818083274e-03
     8    1.569964293798e-05
     9    1.183774244823e-04
    10    6.294846961586e-04
    11    2.044742367204e-03
    12    5.155337032129e-03
    13    2.894600707536e-03
    14    1.312334135067e-02
    15   -1.814445085966e-02
    16   -5.656718531184e-14
    17   -1.459831623213e-02
    18   -3.962438951007e-02
    19   -2.979722994905e-02
    20   -9.755325611062e-14
    21   -2.467278969697e-02
    22   -1.532441974585e-02
    23    1.460723812931e-02
    24   -9.048605586880e-14
    25   -1.569435287055e-03
    26   -9.791789734219e-02
    27   -4.825843436968e-02
    28    3.242048965265e-13
    29   -1.475823573067e-01
    30   -2.790556970631e-05
    31   -1.132563425373e-02
    32   -4.493123673113e-12
    33   -7.342233352347e-03
    34    3.121825720150e-03
    35    1.029208903865e-02
    36    8.078867250317e-14
    37   -3.343002813880e-03
    38   -2.856081573723e-14
    39   -5.605776757561e-05
    40   -4.244080470275e-04
    41   -2.238903506700e-03
    42   -7.330080957213e-03
    43   -1.805063339328e-02
    44   -7.828947226266e-03
    45   -4.596822643260e-02
    46   -1.251754182495e-01
    47   -7.474117049117e-14
    48   -2.093050706931e-02
    49    1.161229951914e-01
    50   -1.919784072208e-01
    51   -1.308828109761e-13
    52   -3.418718782202e-02
    53    8.068586005012e-02
    54   -1.433195502046e-01
    55   -1.277846072871e-13
    56   -2.499214930851e-02
    57   -1.037835103391e-01
    58   -1.474865340383e-02
    59   -3.228964571802e-13
    60   -1.395449333965e-01
    61   -8.610196602673e-03
    62    4.282790647774e-03
    63    4.852941968467e-12
    64   -1.386134155688e-03
    65   -4.380821172515e-03
    66    1.603514156865e-02
    67   -6.148084626435e-14
    68    8.839546812669e-03
    69   -6.851060199519e-15
    70    1.301509092542e-01
    71    2.006713616879e-01
    72    3.146691093328e-02
    73   -4.090617114609e-02
    74    1.477086589998e-02
    75    1.924355728505e-14
    76    1.089232296938e-02
    77   -1.982935876712e-14
    78   -1.531328190249e-13
    79   -7.579510536990e-13
    80   -2.604808096625e-12
    81   -6.642871127289e-12
    82   -5.391668553236e-12
    83   -4.360533421415e-12
    84    6.707204836637e-02
    85   -1.289993081918e-13
    86    4.678324766890e-12
    87    1.748137373676e-12
    88    1.034016290084e-01
    89   -2.260055303515e-13
    90   -8.721400142683e-13
    91   -2.460380244195e-10
    92    5.972117623721e-02
    93   -1.011147822316e-13
    94    1.193620985286e-10
    95    2.455076297484e-09
    96    1.163558695768e-01
    97    2.856978849696e-13
    98    2.150140295852e-09
    99    5.730105411054e-11
   100   -5.809952787306e-04
   101   -4.937771770133e-12
   102    4.949149797864e-11
   103   -2.394978626006e-12
   104    1.637375142820e-02
   105    7.017835011601e-14
   106    2.906001574048e-12
   107    1.579852642064e-14
   108   -2.547932243187e-12
   109   -2.533258149850e-11
   110    4.746215339281e-10
   111    1.382472979901e-09
   112    4.729979797617e-03
   113   -9.270412967342e-14
   114   -9.935599683535e-13
   115    5.605776748251e-05
   116    4.244080463104e-04
   117    2.238903503101e-03
   118    7.330080944922e-03
   119    1.805063336366e-02
   120    7.828947212416e-03
   121    4.596822639435e-02
   122   -1.251754182512e-01
   123   -1.086188062273e-13
   124    2.093050705110e-02
   125   -1.161229951709e-01
   126   -1.919784072256e-01
   127   -1.817983726625e-13
   128    3.418718779184e-02
   129   -8.068586036001e-02
   130   -1.433195502353e-01
   131   -1.437972795862e-13
   132    2.499214904030e-02
   133    1.037835075313e-01
   134   -1.474865266204e-02
   135   -3.185298040719e-13
   136    1.395449327148e-01
   137    8.610196231080e-03
   138    4.282790755788e-03
   139    4.846939296550e-12
   140    1.386134097109e-03
   141    4.380821176926e-03
   142    1.603514156820e-02
   143   -5.770879051945e-14
   144   -8.839546814972e-03
   145   -2.863125726598e-14
   146   -1.301509092499e-01
   147   -2.006713616903e-01
   148   -3.146691094333e-02
   149    4.090617081554e-02
   150    1.477086589812e-02
   151   -1.349545293552e-14
   152   -1.089232296974e-02
   153   -1.569964306446e-05
   154   -1.183774254608e-04
   155   -6.294847010506e-04
   156   -2.044742383970e-03
   157   -5.155337071546e-03
   158   -2.894600720525e-03
   159   -1.312334140706e-02
   160   -1.814445084999e-02
   161   -8.392040647315e-14
   162    1.459831622562e-02
   163    3.962438951711e-02
   164   -2.979722994294e-02
   165   -1.329125180354e-13
   166    2.467278968821e-02
   167    1.532442002284e-02
   168    1.460723834002e-02
   169   -1.638672889699e-13
   170    1.569435019105e-03
   171    9.791789500507e-02
   172   -4.825843230312e-02
   173    3.297719798617e-13
   174    1.475823585337e-01
   175    2.790532001299e-05
   176   -1.132563415527e-02
   177   -4.490068802692e-12
   178    7.342233601088e-03
   179   -3.121825725443e-03
   180    1.029208903721e-02
   181    7.406404122388e-14
   182    3.343002813967e-03
   183    4.782365792791e-14
   184    7.980967584411e-03
   185    1.242816308282e-02
   186    4.269798273649e-03
   187   -1.704515746745e-02
   188    2.557789181931e-04
   189    4.869671262395e-14
   190    1.015818081146e-03
   191   -2.105827914263e-15
   192   -1.640136491910e-14
   193   -8.511080227372e-14
   194   -2.978512461785e-13
   195   -3.754166430331e-13
   196    1.784964018150e-12
   197   -3.425641700252e-12
   198    4.224375096698e-02
   199   -9.594749660507e-14
   200   -1.896996535540e-12
   201   -3.680396800259e-12
   202    4.833610799518e-02
   203   -1.213796832533e-13
   204   -2.218303116313e-13
   205    2.429296353644e-10
   206    2.356061166151e-02
   207   -7.020358614878e-14
   208   -3.610293736721e-11
   209    2.682252289215e-09
   210   -2.555445075802e-01
   211   -2.564657834424e-13
   212   -1.290696278512e-09
   213    4.167551261963e-11
   214    1.155261255710e-02
   215    4.039564148490e-12
   216   -5.364017457960e-10
   217    2.430825133438e-12
   218   -2.824969687240e-03
   219    3.923301073548e-14
   220   -2.174372886287e-12
   221   -1.665929524111e-14
   222   -5.676463598530e-12
   223   -8.685241836505e-12
   224   -1.495816467316e-12
   225   -4.967780920968e-12
   226    1.517058234074e-11
   227   -4.209416671358e-11
   228   -4.802027353216e-02
   229    1.531472779971e-11
   230    1.626626434783e-11
   231   -1.161849455586e-02
   232    4.072715189571e-12
   233    4.319426941553e-12
   234    3.286002590237e-02
   235    6.524407556757e-13
   236   -6.714262642935e-13
   237    7.793156718021e-02
   238    6.383825861176e-14
   239   -1.951994591328e-12
   240    4.622823133489e-02
   241    7.659901429021e-14
   242    3.166688783018e-11
   243    6.078185619395e-10
   244    6.739989952269e-03
   245   -5.850922833130e-15
   246   -1.449930264523e-10
   247    6.634581882818e-10
   248   -1.920856572753e-03
   249    2.118209428015e-13
   250   -2.969808380934e-11
   251    1.270230014980e-12
   252   -3.691770788103e-03
   253    2.615461139672e-14
   254   -4.146895512744e-12
   255   -2.223527463753e-14
Sym=X
Ene= 2.000087
Spin=Alpha
Occup=1
     1    8.414635956732e-03
     2    1.553468690411e-02
     3    1.589201181888e-02
     4    8.663338825855e-03
     5   -4.915702650233e-04
     6    9.838848362456e-14
     7    5.404132453355e-04
     8   -5.708024902722e-07
     9   -3.866859482519e-06
    10   -2.906461445987e-05
    11   -7.192229996000e-05
    12   -7.241687807213e-05
    13    7.917089663253e-04
    14   -3.223363857401e-03
    15    7.713990830210e-03
    16    1.336908024516e-12
    17    1.575478073467e-02
    18    1.057865349995e-02
    19    1.017630071438e-02
    20    2.334552222812e-12
    21    2.553635146295e-02
    22    4.054724812160e-02
    23    8.984273258090e-03
    24    1.588166861635e-12
    25   -3.578797587912e-03
    26    1.887256261721e-01
    27    8.715421107878e-03
    28    3.611183269656e-13
    29   -7.964206175533e-02
    30    1.081866877601e-02
    31   -3.201077275845e-03
    32    2.544052800120e-14
    33    3.148712565416e-03
    34   -4.898298304931e-03
    35   -8.943578649554e-03
    36   -1.246280619772e-13
    37    3.718787077373e-03
    38    2.052661537748e-13
    39    9.802831039085e-05
    40    7.416233430994e-04
    41    3.916814782161e-03
    42    1.280605917042e-02
    43    3.168544297685e-02
    44    1.414545396724e-02
    45    8.018604541323e-02
    46    8.337419383456e-02
    47    1.354335331809e-12
    48    4.091931077441e-02
    49   -2.102197145859e-01
    50    1.270395501161e-01
    51    2.336562596749e-12
    52    6.089203829328e-02
    53   -1.716854077605e-01
    54    7.688412433231e-02
    55    1.760849554437e-12
    56    4.266140558090e-02
    57    8.687632117871e-02
    58    1.079662324824e-01
    59   -1.721750114020e-13
    60   -5.491840593614e-03
    61    8.990147136195e-03
    62    6.182313309458e-03
    63   -1.563556870604e-13
    64   -1.573102629211e-03
    65    7.241009977403e-04
    66   -1.142428512604e-02
    67    1.186495126707e-13
    68   -8.401808719740e-03
    69    1.961428883574e-13
    70   -1.215017525214e-01
    71   -1.819910790529e-01
    72   -1.601073036398e-02
    73    3.902181530723e-02
    74   -1.656547320315e-02
    75    8.986504335568e-14
    76   -9.803430481086e-03
    77   -8.968006784995e-06
    78   -6.985298403845e-05
    79   -3.462812125227e-04
    80   -1.193867999359e-03
    81   -2.607951355647e-03
    82    2.885069693181e-06
    83   -4.863502862406e-03
    84    3.472602652281e-12
    85    1.354472750449e-12
    86    1.072076189270e-02
    87    3.273196053511e-03
    88    1.253675023577e-11
    89    2.356756213213e-12
    90    1.289653501781e-02
    91    4.061895751545e-02
    92   -1.257816492685e-10
    93    1.707665965384e-12
    94    6.034099859328e-03
    95   -3.824526289163e-01
    96    3.213497533777e-09
    97    3.149592740359e-13
    98   -9.000019637602e-02
    99   -1.643399777892e-02
   100   -1.855063778295e-10
   101    6.925368772876e-14
   102   -1.166513022976e-03
   103    1.423365933960e-02
   104    3.253628494485e-12
   105    2.215220940992e-13
   106   -9.751573132135e-03
   107   -4.411617833541e-15
   108    7.911321212067e-04
   109    3.348919423500e-03
   110    1.283040463483e-02
   111   -3.340104536049e-02
   112   -1.683004844610e-13
   113    1.056456340960e-13
   114   -3.343840201751e-03
   115    9.802831088253e-05
   116    7.416233468976e-04
   117    3.916814801114e-03
   118    1.280605923550e-02
   119    3.168544313079e-02
   120    1.414545402505e-02
   121    8.018604561573e-02
   122   -8.337419385432e-02
   123    1.328506329236e-12
   124    4.091931078130e-02
   125   -2.102197145804e-01
   126   -1.270395501405e-01
   127    2.287800521478e-12
   128    6.089203829691e-02
   129   -1.716854074664e-01
   130   -7.688412457790e-02
   131    1.722214585426e-12
   132    4.266140573801e-02
   133    8.687632205384e-02
   134   -1.079662317175e-01
   135   -1.734329705781e-13
   136   -5.491834996507e-03
   137    8.990147320982e-03
   138   -6.182312885791e-03
   139    6.039474892764e-14
   140   -1.573102374082e-03
   141    7.241009969235e-04
   142    1.142428512633e-02
   143    9.990402811687e-14
   144   -8.401808717850e-03
   145   -2.040502961204e-13
   146   -1.215017525237e-01
   147   -1.819910790695e-01
   148   -1.601072982963e-02
   149    3.902181664102e-02
   150    1.656547320681e-02
   151    9.129892413407e-14
   152   -9.803430482249e-03
   153   -5.708016397025e-07
   154   -3.866852896832e-06
   155   -2.906458161918e-05
   156   -7.192218716129e-05
   157   -7.241661183037e-05
   158    7.917090624411e-04
   159   -3.223363502753e-03
   160   -7.713990816517e-03
   161    1.306292389192e-12
   162    1.575478074412e-02
   163    1.057865352022e-02
   164   -1.017630069768e-02
   165    2.284333572855e-12
   166    2.553635147036e-02
   167    4.054724798687e-02
   168   -8.984273041098e-03
   169    1.533426840991e-12
   170   -3.578797374112e-03
   171    1.887256275592e-01
   172   -8.715422360444e-03
   173    3.513160518881e-13
   174   -7.964205582925e-02
   175    1.081866876837e-02
   176    3.201076880849e-03
   177   -1.766661564009e-13
   178    3.148712672677e-03
   179   -4.898298302147e-03
   180    8.943578650663e-03
   181   -1.131830717776e-13
   182    3.718787076033e-03
   183   -2.045915194266e-13
   184    8.414635959778e-03
   185    1.553468690933e-02
   186    1.589201127852e-02
   187    8.663337574101e-03
   188    4.915702608217e-04
   189    1.002088136867e-13
   190    5.404132442194e-04
   191   -2.513583286655e-05
   192   -1.913729812075e-04
   193   -1.006102363512e-03
   194   -3.392534180948e-03
   195   -8.548246771993e-03
   196    2.882237573739e-03
   197   -2.097638837638e-02
   198    8.780260721306e-13
   199    1.419031865791e-12
   200   -2.254302312219e-03
   201    5.550718022185e-02
   202   -5.158662890660e-13
   203    2.480939389086e-12
   204   -2.273239310640e-03
   205    1.058904170632e-02
   206    5.913342149382e-11
   207    1.851062697643e-12
   208    4.154039253408e-02
   209   -1.659318048528e-01
   210   -4.026279524010e-09
   211   -5.060096959990e-13
   212    2.002486137012e-01
   213   -6.708309770638e-03
   214    1.631867317320e-10
   215    3.958808992052e-13
   216   -3.571285473225e-04
   217   -3.474639367944e-03
   218    1.723453553402e-12
   219   -1.457602096191e-13
   220    5.950965426889e-03
   221   -3.722442849514e-15
   222   -1.126342529380e-02
   223   -3.265488367645e-02
   224    6.490594262295e-02
   225    1.258242479030e-01
   226   -1.858211493886e-01
   227   -1.976485225210e-01
   228    2.856977358614e-12
   229   -7.385447724772e-12
   230    2.017431000318e-02
   231    6.841443405846e-13
   232   -1.951288850404e-12
   233    4.587731027049e-03
   234   -1.592463356294e-12
   235    3.084035464665e-14
   236   -2.577282061677e-02
   237   -3.774251905827e-12
   238    7.740808888989e-13
   239   -5.462473761103e-02
   240   -1.230112754487e-11
   241    2.154193991578e-14
   242   -9.975487409680e-03
   243   -1.051332899199e-01
   244    1.673098220092e-10
   245    8.535408838677e-14
   246    1.045837248159e-02
   247   -2.168021173247e-02
   248   -6.760350119890e-11
   249   -1.804345909170e-13
   250    7.255939919938e-03
   251    5.104369275984e-03
   252   -3.776552856023e-12
   253   -2.201985677926e-13
   254   -8.911968970913e-05
   255    6.156631191508e-15
Sym=X
Ene= 2.000013
Spin=Alpha
Occup=1
     1   -7.449346789127e-03
     2   -7.898753528558e-03
     3    2.190837265067e-03
     4   -4.605488098558e-02
     5   -1.045597905453e-03
     6    2.596803687201e-14
     7   -3.246373060516e-04
     8    8.204740775026e-06
     9    6.096519125898e-05
    10    3.335711743216e-04
    11    1.057121403732e-03
    12    2.849251806463e-03
    13    2.425307510998e-03
    14    7.583896197774e-03
    15   -4.216013458352e-03
    16    3.480445551798e-13
    17   -4.131661890266e-03
    18   -2.860565645314e-02
    19   -8.021812642666e-03
    20    6.224598500263e-13
    21   -9.767626608072e-03
    22    1.743217547998e-02
    23    2.458475795119e-02
    24    3.376163199422e-13
    25   -2.186826976493e-02
    26   -7.520640810832e-02
    27   -7.370959041921e-02
    28    3.532043103433e-13
    29   -6.814740237866e-03
    30   -2.654393325222e-02
    31   -2.157142880580e-03
    32   -8.574742169816e-13
    33    2.699356611865e-02
    34    1.087262611365e-03
    35    1.565161485168e-03
    36   -2.747780755471e-14
    37   -1.892763059576e-03
    38    6.451637923034e-14
    39   -1.370680499542e-05
    40   -1.036129683372e-04
    41   -5.519533868479e-04
    42   -1.794251221350e-03
    43   -4.269039383735e-03
    44   -8.893130688461e-04
    45   -1.360511835126e-02
    46   -3.494498999079e-02
    47    3.618669960994e-13
    48   -1.190813781271e-02
    49    3.574557458962e-02
    50   -5.444724785383e-02
    51    6.131993103355e-13
    52   -2.053300591621e-02
    53    2.030184281738e-02
    54   -3.089768675214e-02
    55    4.787715526141e-13
    56   -1.506815183336e-02
    57   -1.344692508897e-01
    58   -1.863722282914e-02
    59   -2.446568820537e-13
    60   -4.769284621051e-02
    61   -3.787536158918e-02
    62   -1.143398547908e-02
    63    6.410814663881e-13
    64   -4.926736427811e-03
    65   -1.265998798906e-04
    66    3.479467845407e-03
    67    2.522353774190e-14
    68    1.183748437245e-03
    69    5.396186610576e-14
    70    3.765021884050e-02
    71    5.771656675127e-02
    72    8.705794949220e-03
    73   -1.492414437715e-02
    74    4.943856062686e-03
    75    2.749580460009e-14
    76    3.267098927073e-03
    77    2.105528003874e-05
    78    1.604502243784e-04
    79    8.304023720850e-04
    80    2.760116940599e-03
    81    6.835018275864e-03
    82    3.574070589830e-03
    83    1.334855891316e-02
    84    1.238913518073e-12
    85    3.872419800452e-13
    86   -1.947385114601e-02
    87   -2.958259890769e-02
    88   -2.910469333575e-12
    89    6.823883985723e-13
    90   -3.042572475426e-02
    91   -1.305615536915e-02
    92    6.552710348283e-11
    93    4.875631001877e-13
    94   -1.111695923842e-02
    95    5.345853818176e-02
    96    2.141035962706e-09
    97    2.535499942397e-13
    98    2.426892367318e-02
    99   -3.010938288302e-02
   100    4.502593659539e-11
   101   -5.722488722609e-13
   102   -1.376314348986e-02
   103   -3.141964771736e-03
   104   -1.994920390406e-12
   105    6.472257460763e-14
   106    1.019533834464e-03
   107    5.077374693579e-15
   108    8.088789476536e-03
   109    1.293436939059e-02
   110    3.376201636681e-03
   111    4.592931116029e-03
   112    1.632066928251e-12
   113    3.378399092216e-14
   114    1.597220898523e-03
   115   -1.370680496502e-05
   116   -1.036129681016e-04
   117   -5.519533856705e-04
   118   -1.794251217302e-03
   119   -4.269039374260e-03
   120   -8.893130662132e-04
   121   -1.360511833817e-02
   122    3.494498999778e-02
   123    4.003333506123e-13
   124   -1.190813781601e-02
   125    3.574557459193e-02
   126    5.444724785946e-02
   127    6.774710998305e-13
   128   -2.053300591523e-02
   129    2.030184264758e-02
   130    3.089768690250e-02
   131    5.383997946990e-13
   132   -1.506815198388e-02
   133   -1.344692552922e-01
   134    1.863722681951e-02
   135   -2.235238378309e-13
   136   -4.769284375518e-02
   137   -3.787536187500e-02
   138    1.143398553761e-02
   139    5.597924394450e-13
   140   -4.926736290689e-03
   141   -1.265998768469e-04
   142   -3.479467844925e-03
   143    3.733557283600e-14
   144    1.183748435650e-03
   145   -5.302763920786e-14
   146    3.765021883704e-02
   147    5.771656674851e-02
   148    8.705794593139e-03
   149   -1.492414542785e-02
   150   -4.943856065476e-03
   151    2.888109903720e-14
   152    3.267098927244e-03
   153    8.204740776024e-06
   154    6.096519126532e-05
   155    3.335711743432e-04
   156    1.057121403838e-03
   157    2.849251806733e-03
   158    2.425307511656e-03
   159    7.583896195106e-03
   160    4.216013451826e-03
   161    3.880646796392e-13
   162   -4.131661896035e-03
   163   -2.860565644201e-02
   164    8.021812632969e-03
   165    6.907896660699e-13
   166   -9.767626609569e-03
   167    1.743217557047e-02
   168   -2.458475804963e-02
   169    4.132363116432e-13
   170   -2.186826996282e-02
   171   -7.520640237596e-02
   172    7.370958598202e-02
   173    3.453359508249e-13
   174   -6.814737483757e-03
   175   -2.654393303364e-02
   176    2.157142936108e-03
   177   -7.793558968856e-13
   178    2.699356600488e-02
   179    1.087262610349e-03
   180   -1.565161483348e-03
   181   -3.450700039238e-14
   182   -1.892763059063e-03
   183   -6.670861254525e-14
   184   -7.449346784960e-03
   185   -7.898753523607e-03
   186    2.190837623363e-03
   187   -4.605487971610e-02
   188    1.045597906164e-03
   189    2.831640485067e-14
   190   -3.246373049502e-04
   191    3.359412106181e-05
   192    2.554445924483e-04
   193    1.342191293225e-03
   194    4.522684769713e-03
   195    1.164164112524e-02
   196   -7.442997944043e-04
   197    2.575613702333e-02
   198    8.039933253748e-13
   199    4.855107420282e-13
   200   -5.589074359921e-03
   201   -6.396277536171e-02
   202    8.827235987716e-13
   203    8.488125425379e-13
   204   -2.225424621148e-02
   205    5.767082231681e-03