[Molden Format]
[Atoms] (Angs)
  H      1    1     -2.14003202      0.00000000      0.38146042
  C      2    6     -1.21205832      0.00000000     -0.17180643
  C      3    6     -1.20429565      0.00000000     -1.56369320
  H      4    1     -2.14371879      0.00000000     -2.09923439
  C      5    6     -0.00000000      0.00000000     -2.26269040
  H      6    1     -0.00000000      0.00000000     -3.34354440
  C      7    6      1.20429565      0.00000000     -1.56369320
  H      8    1      2.14371879      0.00000000     -2.09923439
  C      9    6      1.21205832     -0.00000000     -0.17180643
  H     10    1      2.14003202     -0.00000000      0.38146042
  C     11    6      0.00000000     -0.00000000      0.51110416
 Cl     12   17      0.00000000     -0.00000000      2.24203561
[GTO]
1    0
S    3    1.000000
   3.38650000E+01    2.54938000E-02 
   5.09479000E+00    1.90373000E-01 
   1.15879000E+00    8.52161000E-01 
S    1    1.000000
   3.25840000E-01    1.00000000E+00 
S    1    1.000000
   1.02741000E-01    1.00000000E+00 
S    1    1.000000
   3.60000000E-02    1.00000000E+00 
P    1    1.000000
   7.50000000E-01    1.00000000E+00 

2    0
S    1    1.000000
   4.56324000E+03    1.96665000E-03 
S    1    1.000000
   6.82024000E+02    1.52306000E-02 
S    1    1.000000
   1.54973000E+02    7.61269000E-02 
S    1    1.000000
   4.44553000E+01    2.60801000E-01 
S    1    1.000000
   1.30290000E+01    6.16462000E-01 
S    1    1.000000
   1.82773000E+00    2.21006000E-01 
SP   3    1.000000
   2.09642000E+01    1.14660000E-01   4.02487000E-02 
   4.80331000E+00    9.19999000E-01   2.37594000E-01 
   1.45933000E+00   -3.03068000E-03   8.15854000E-01 
SP   1    1.000000
   4.83456000E-01    1.00000000E+00   1.00000000E+00 
SP   1    1.000000
   1.45585000E-01    1.00000000E+00   1.00000000E+00 
SP   1    1.000000
   4.38000000E-02    1.00000000E+00   1.00000000E+00 
SP   1    1.000000
   1.31927711E-02    1.00000000E+00   1.00000000E+00 
D    1    1.000000
   6.26000000E-01    1.00000000E+00 

3    0
S    1    1.000000
   4.56324000E+03    1.96665000E-03 
S    1    1.000000
   6.82024000E+02    1.52306000E-02 
S    1    1.000000
   1.54973000E+02    7.61269000E-02 
S    1    1.000000
   4.44553000E+01    2.60801000E-01 
S    1    1.000000
   1.30290000E+01    6.16462000E-01 
S    1    1.000000
   1.82773000E+00    2.21006000E-01 
SP   3    1.000000
   2.09642000E+01    1.14660000E-01   4.02487000E-02 
   4.80331000E+00    9.19999000E-01   2.37594000E-01 
   1.45933000E+00   -3.03068000E-03   8.15854000E-01 
SP   1    1.000000
   4.83456000E-01    1.00000000E+00   1.00000000E+00 
SP   1    1.000000
   1.45585000E-01    1.00000000E+00   1.00000000E+00 
SP   1    1.000000
   4.38000000E-02    1.00000000E+00   1.00000000E+00 
SP   1    1.000000
   1.31927711E-02    1.00000000E+00   1.00000000E+00 
D    1    1.000000
   6.26000000E-01    1.00000000E+00 

4    0
S    3    1.000000
   3.38650000E+01    2.54938000E-02 
   5.09479000E+00    1.90373000E-01 
   1.15879000E+00    8.52161000E-01 
S    1    1.000000
   3.25840000E-01    1.00000000E+00 
S    1    1.000000
   1.02741000E-01    1.00000000E+00 
S    1    1.000000
   3.60000000E-02    1.00000000E+00 
P    1    1.000000
   7.50000000E-01    1.00000000E+00 

5    0
S    1    1.000000
   4.56324000E+03    1.96665000E-03 
S    1    1.000000
   6.82024000E+02    1.52306000E-02 
S    1    1.000000
   1.54973000E+02    7.61269000E-02 
S    1    1.000000
   4.44553000E+01    2.60801000E-01 
S    1    1.000000
   1.30290000E+01    6.16462000E-01 
S    1    1.000000
   1.82773000E+00    2.21006000E-01 
SP   3    1.000000
   2.09642000E+01    1.14660000E-01   4.02487000E-02 
   4.80331000E+00    9.19999000E-01   2.37594000E-01 
   1.45933000E+00   -3.03068000E-03   8.15854000E-01 
SP   1    1.000000
   4.83456000E-01    1.00000000E+00   1.00000000E+00 
SP   1    1.000000
   1.45585000E-01    1.00000000E+00   1.00000000E+00 
SP   1    1.000000
   4.38000000E-02    1.00000000E+00   1.00000000E+00 
SP   1    1.000000
   1.31927711E-02    1.00000000E+00   1.00000000E+00 
D    1    1.000000
   6.26000000E-01    1.00000000E+00 

6    0
S    3    1.000000
   3.38650000E+01    2.54938000E-02 
   5.09479000E+00    1.90373000E-01 
   1.15879000E+00    8.52161000E-01 
S    1    1.000000
   3.25840000E-01    1.00000000E+00 
S    1    1.000000
   1.02741000E-01    1.00000000E+00 
S    1    1.000000
   3.60000000E-02    1.00000000E+00 
P    1    1.000000
   7.50000000E-01    1.00000000E+00 

7    0
S    1    1.000000
   4.56324000E+03    1.96665000E-03 
S    1    1.000000
   6.82024000E+02    1.52306000E-02 
S    1    1.000000
   1.54973000E+02    7.61269000E-02 
S    1    1.000000
   4.44553000E+01    2.60801000E-01 
S    1    1.000000
   1.30290000E+01    6.16462000E-01 
S    1    1.000000
   1.82773000E+00    2.21006000E-01 
SP   3    1.000000
   2.09642000E+01    1.14660000E-01   4.02487000E-02 
   4.80331000E+00    9.19999000E-01   2.37594000E-01 
   1.45933000E+00   -3.03068000E-03   8.15854000E-01 
SP   1    1.000000
   4.83456000E-01    1.00000000E+00   1.00000000E+00 
SP   1    1.000000
   1.45585000E-01    1.00000000E+00   1.00000000E+00 
SP   1    1.000000
   4.38000000E-02    1.00000000E+00   1.00000000E+00 
SP   1    1.000000
   1.31927711E-02    1.00000000E+00   1.00000000E+00 
D    1    1.000000
   6.26000000E-01    1.00000000E+00 

8    0
S    3    1.000000
   3.38650000E+01    2.54938000E-02 
   5.09479000E+00    1.90373000E-01 
   1.15879000E+00    8.52161000E-01 
S    1    1.000000
   3.25840000E-01    1.00000000E+00 
S    1    1.000000
   1.02741000E-01    1.00000000E+00 
S    1    1.000000
   3.60000000E-02    1.00000000E+00 
P    1    1.000000
   7.50000000E-01    1.00000000E+00 

9    0
S    1    1.000000
   4.56324000E+03    1.96665000E-03 
S    1    1.000000
   6.82024000E+02    1.52306000E-02 
S    1    1.000000
   1.54973000E+02    7.61269000E-02 
S    1    1.000000
   4.44553000E+01    2.60801000E-01 
S    1    1.000000
   1.30290000E+01    6.16462000E-01 
S    1    1.000000
   1.82773000E+00    2.21006000E-01 
SP   3    1.000000
   2.09642000E+01    1.14660000E-01   4.02487000E-02 
   4.80331000E+00    9.19999000E-01   2.37594000E-01 
   1.45933000E+00   -3.03068000E-03   8.15854000E-01 
SP   1    1.000000
   4.83456000E-01    1.00000000E+00   1.00000000E+00 
SP   1    1.000000
   1.45585000E-01    1.00000000E+00   1.00000000E+00 
SP   1    1.000000
   4.38000000E-02    1.00000000E+00   1.00000000E+00 
SP   1    1.000000
   1.31927711E-02    1.00000000E+00   1.00000000E+00 
D    1    1.000000
   6.26000000E-01    1.00000000E+00 

10    0
S    3    1.000000
   3.38650000E+01    2.54938000E-02 
   5.09479000E+00    1.90373000E-01 
   1.15879000E+00    8.52161000E-01 
S    1    1.000000
   3.25840000E-01    1.00000000E+00 
S    1    1.000000
   1.02741000E-01    1.00000000E+00 
S    1    1.000000
   3.60000000E-02    1.00000000E+00 
P    1    1.000000
   7.50000000E-01    1.00000000E+00 

11    0
S    1    1.000000
   4.56324000E+03    1.96665000E-03 
S    1    1.000000
   6.82024000E+02    1.52306000E-02 
S    1    1.000000
   1.54973000E+02    7.61269000E-02 
S    1    1.000000
   4.44553000E+01    2.60801000E-01 
S    1    1.000000
   1.30290000E+01    6.16462000E-01 
S    1    1.000000
   1.82773000E+00    2.21006000E-01 
SP   3    1.000000
   2.09642000E+01    1.14660000E-01   4.02487000E-02 
   4.80331000E+00    9.19999000E-01   2.37594000E-01 
   1.45933000E+00   -3.03068000E-03   8.15854000E-01 
SP   1    1.000000
   4.83456000E-01    1.00000000E+00   1.00000000E+00 
SP   1    1.000000
   1.45585000E-01    1.00000000E+00   1.00000000E+00 
SP   1    1.000000
   4.38000000E-02    1.00000000E+00   1.00000000E+00 
SP   1    1.000000
   1.31927711E-02    1.00000000E+00   1.00000000E+00 
D    1    1.000000
   6.26000000E-01    1.00000000E+00 

12    0
S    6    1.000000
   1.05819000E+05    7.38000000E-04 
   1.58720000E+04    5.71800000E-03 
   3.61965000E+03    2.94950000E-02 
   1.03080000E+03    1.17286000E-01 
   3.39908000E+02    3.62949000E-01 
   1.24538000E+02    5.84149000E-01 
S    3    1.000000
   1.24538000E+02    1.34177000E-01 
   4.95135000E+01    6.24250000E-01 
   2.08056000E+01    2.91756000E-01 
S    1    1.000000
   6.58346000E+00    1.00000000E+00 
S    1    1.000000
   2.56468000E+00    1.00000000E+00 
S    1    1.000000
   5.59763000E-01    1.00000000E+00 
S    1    1.000000
   1.83273000E-01    1.00000000E+00 
P    5    1.000000
   5.89776000E+02    2.39100000E-03 
   1.39849000E+02    1.85040000E-02 
   4.51413000E+01    8.13770000E-02 
   1.68733000E+01    2.21552000E-01 
   6.74110000E+00    7.72569000E-01 
P    2    1.000000
   6.74110000E+00   -1.57224400E+00 
   2.77152000E+00    9.92389000E-01 
P    1    1.000000
   1.02387000E+00    1.00000000E+00 
P    1    1.000000
   3.81368000E-01    1.00000000E+00 
P    1    1.000000
   1.09437000E-01    1.00000000E+00 
SP   1    1.000000
   4.83000000E-02    1.00000000E+00   1.00000000E+00 
SP   1    1.000000
   1.45481928E-02    1.00000000E+00   1.00000000E+00 
D    1    1.000000
   7.50000000E-01    1.00000000E+00 

[MO]
Sym=X
Ene= 2.000512
Spin=Alpha
Occup=1
     1   -6.030564112033e-13
     2   -7.665190930302e-13
     3    1.799583268092e-13
     4   -3.814899202089e-12
     5   -3.947204239468e-14
     6   -1.670351351155e-03
     7   -1.133361623352e-13
     8    3.520071377029e-16
     9   -2.072298548704e-15
    10   -3.455691350230e-15
    11   -1.402078957505e-14
    12   -3.668766323789e-14
    13   -9.355745433865e-14
    14   -6.748247113211e-14
    15   -7.192482454418e-13
    16   -1.851489501016e-02
    17   -2.324279352567e-12
    18    5.947104143853e-13
    19   -9.717799326136e-13
    20   -2.966772428999e-02
    21   -3.571831346599e-12
    22   -1.870191031970e-12
    23   -3.378217406254e-13
    24    1.399440163951e-02
    25   -2.852967155858e-12
    26    2.726299729307e-12
    27   -1.117283373898e-12
    28   -4.733208738513e-02
    29    3.944087270484e-12
    30    6.170770910229e-13
    31   -5.771715259799e-12
    32    1.110403228341e-01
    33   -6.842409326273e-12
    34    4.634426261651e-13
    35    2.207272538488e-14
    36    4.416412377213e-04
    37   -2.748864243626e-13
    38   -5.220968275563e-03
    39   -1.217212880083e-18
    40    7.917614256974e-16
    41    2.515032619633e-15
    42    1.021982341174e-14
    43   -6.446680516636e-15
    44   -8.104637339383e-14
    45    1.065556115067e-13
    46    4.764085810045e-13
    47   -2.537524477850e-02
    48    2.508780423279e-12
    49    3.371615657190e-13
    50    7.546762841124e-13
    51   -4.403068058904e-02
    52    3.851976520790e-12
    53   -1.211084157067e-12
    54    1.031025608099e-12
    55   -3.846520246716e-02
    56    3.045254828994e-12
    57    4.123382096455e-12
    58   -4.082447499546e-13
    59    3.105422286636e-02
    60   -2.565817433033e-12
    61    2.587329750774e-12
    62    2.163017820495e-12
    63   -8.243522463701e-02
    64    2.443544659103e-12
    65    3.752114343578e-13
    66   -1.900145940138e-13
    67   -2.093042448522e-04
    68   -2.397799036492e-13
    69   -5.055007274800e-03
    70   -1.541465403689e-12
    71   -2.324477439166e-12
    72    3.173746399523e-14
    73   -2.387153882519e-12
    74   -1.561835671429e-13
    75   -1.583108921094e-03
    76   -1.522021402041e-15
    77    2.243499320242e-15
    78    2.000227337383e-14
    79    9.403493853157e-14
    80    3.296961740616e-13
    81    7.724215496787e-13
    82    3.115881062167e-13
    83    1.292387463781e-12
    84   -6.184275763286e-14
    85   -3.495119808542e-02
    86   -8.844136704641e-13
    87   -1.391568210430e-12
    88   -6.619237144139e-14
    89   -6.104624712859e-02
    90   -1.375499567518e-12
    91   -1.426846650975e-12
    92   -7.679790683850e-13
    93   -4.999181547696e-02
    94   -2.207295664187e-12
    95    1.326522654400e-11
    96    4.735256186697e-12
    97   -3.366572559029e-02
    98   -3.056586190888e-13
    99    5.255244765883e-12
   100    3.842989082641e-13
   101    7.122220624682e-02
   102   -2.127182422057e-12
   103    5.306214116104e-13
   104   -4.988756242450e-14
   105   -4.692123789749e-03
   106   -3.625574662873e-13
   107   -1.380566006623e-14
   108    8.621133419359e-13
   109    1.477123926736e-12
   110    4.829822040634e-13
   111   -3.947998633942e-12
   112    1.560274189471e-14
   113   -2.930061296794e-03
   114    1.549817972704e-14
   115    1.456366826438e-16
   116    3.212202044961e-15
   117    1.332019748290e-14
   118    4.104518684978e-14
   119    1.357636089126e-13
   120    1.008493681367e-13
   121    1.824520817232e-13
   122   -3.261357240181e-13
   123   -2.537524477860e-02
   124    2.535107191132e-12
   125   -8.082652123101e-13
   126   -4.465137335600e-13
   127   -4.403068058924e-02
   128    3.876926589149e-12
   129    3.031742172951e-13
   130   -1.611620872209e-12
   131   -3.846520246737e-02
   132    2.252816756925e-12
   133   -3.863315589252e-13
   134    7.085770665841e-12
   135    3.105422286718e-02
   136    3.409366511630e-12
   137    3.616796099412e-12
   138   -1.007843068092e-13
   139   -8.243522464514e-02
   140    4.883098058957e-12
   141    3.217191800152e-13
   142    2.002842561250e-13
   143   -2.093042448951e-04
   144   -2.584983893487e-13
   145    5.055007274830e-03
   146   -1.471871501614e-12
   147   -1.940315434219e-12
   148   -8.826725208285e-13
   149   -5.494691384326e-12
   150    1.965546509927e-13
   151   -1.583108921080e-03
   152    1.302449020751e-14
   153    1.064274520275e-16
   154   -8.057238322866e-16
   155   -3.617175125237e-15
   156   -9.637765183470e-15
   157   -4.575088583849e-14
   158   -8.185935137506e-15
   159   -1.221009472530e-14
   160    7.235088616336e-13
   161   -1.851489501033e-02
   162   -2.246454561944e-12
   163   -1.990431110581e-13
   164    1.040386041728e-12
   165   -2.966772429022e-02
   166   -3.405979222411e-12
   167    1.364444358376e-12
   168    1.653090365311e-13
   169    1.399440163929e-02
   170   -2.413024764353e-12
   171   -1.280125998137e-11
   172   -8.816185014385e-15
   173   -4.733208738615e-02
   174    7.153985309928e-12
   175    1.277595698599e-12
   176   -2.799105497738e-12
   177    1.110403228430e-01
   178   -1.145241677365e-11
   179    4.300931530669e-13
   180   -5.162827114601e-14
   181    4.416412377520e-04
   182   -2.690672075216e-13
   183    5.220968275595e-03
   184   -4.977625928708e-13
   185   -5.561926400601e-13
   186   -7.391031674543e-13
   187   -1.076031493558e-12
   188    8.824578479167e-14
   189   -1.670351351144e-03
   190   -9.906920727548e-14
   191    7.426804435068e-16
   192   -1.664074889521e-15
   193    1.215115238497e-15
   194   -7.296320048394e-15
   195   -1.906786678886e-14
   196   -5.981862440493e-14
   197    1.828674081709e-13
   198    4.340371877129e-14
   199   -5.070014518052e-02
   200    2.796832024020e-12
   201   -1.053392270854e-12
   202    8.027063269996e-14
   203   -9.263805767459e-02
   204    4.948687505572e-12
   205    9.617150160967e-13
   206   -7.415234866065e-13
   207   -6.635538535358e-02
   208    4.725676466296e-12
   209   -2.545687258613e-12
   210    1.026301033344e-12
   211    6.820850186999e-02
   212   -1.431980592012e-11
   213    3.164768111830e-12
   214    3.448051434995e-12
   215   -1.256602573142e-01
   216    2.402316976780e-11
   217    1.000116865378e-12
   218   -1.228549642143e-14
   219   -2.223258962636e-02
   220   -4.019795669424e-13
   221   -3.087718590049e-14
   222    5.739129335568e-13
   223    1.022076222945e-12
   224   -4.093988063289e-13
   225   -8.324003502453e-13
   226    1.019621747923e-12
   227   -1.430543334907e-12
   228    1.688514940984e-13
   229    3.178381741451e-01
   230    5.301251571243e-12
   231    3.221990626474e-14
   232    7.618366952314e-02
   233    1.308845627401e-12
   234   -4.596927664802e-13
   235   -2.273256362621e-01
   236   -3.439431585521e-12
   237   -1.009784466172e-12
   238   -5.537066114946e-01
   239   -7.807823745091e-12
   240   -6.032116003379e-13
   241   -3.343523897704e-01
   242   -2.375859668374e-12
   243    9.937947409923e-12
   244   -1.938451426489e-13
   245    4.652208527971e-02
   246   -1.359018320741e-12
   247   -1.351656087730e-11
   248    6.280443643574e-13
   249   -1.723041191822e-02
   250   -2.135388143732e-12
   251    8.912553339623e-13
   252    2.169813294071e-14
   253    2.187016163990e-02
   254   -4.850989449328e-14
   255   -1.194248131851e-14
Sym=X
Ene= 2.000013
Spin=Alpha
Occup=1
     1    1.986877312371e-03
     2    3.653669927974e-03
     3   -5.468792846895e-03
     4   -3.425365736603e-02
     5    4.179018607581e-04
     6   -7.776644125630e-14
     7   -2.905158862676e-04
     8   -5.691902962706e-06
     9   -4.347059981070e-05
    10   -2.269809952906e-04
    11   -7.619014264153e-04
    12   -1.844675580572e-03
    13    2.227084650000e-05
    14   -4.761834217832e-03
    15   -1.440057897168e-03
    16   -1.187057923271e-12
    17   -5.683164278968e-03
    18    1.102809725407e-02
    19   -3.272353031593e-03
    20   -1.980649448969e-12
    21   -7.713758103749e-03
    22   -1.209215159251e-02
    23   -4.034367092242e-03
    24   -1.565282833641e-12
    25    1.088794435516e-02
    26   -3.930410336268e-02
    27   -6.928177142374e-02
    28    2.094814846697e-13
    29   -1.491106804278e-02
    30   -2.761862457192e-03
    31   -2.296395051994e-03
    32   -9.471411757537e-13
    33    7.751972243757e-03
    34    2.157136471745e-03
    35    4.512074500723e-04
    36    1.321143196064e-13
    37    2.548799337772e-04
    38   -1.437145321458e-13
    39    1.098278458305e-05
    40    8.294896947129e-05
    41    4.370682202983e-04
    42    1.433215661645e-03
    43    3.727746670588e-03
    44    2.521846787589e-03
    45    7.404279335578e-03
    46   -1.656264204296e-02
    47   -1.274050516503e-12
    48    2.021890282414e-02
    49   -1.846599903549e-02
    50   -2.908925544786e-02
    51   -2.293412260459e-12
    52    3.223025338657e-02
    53    3.282796201158e-02
    54    1.896391290105e-04
    55   -1.661123721391e-12
    56    1.974428179016e-03
    57   -1.262448803719e-01
    58    6.290896510106e-04
    59   -2.990215399058e-13
    60   -4.811974387794e-02
    61   -9.067721445630e-03
    62   -2.401191790887e-03
    63    8.131170633050e-13
    64   -1.656355375090e-03
    65   -4.703827574284e-03
    66    1.316198801082e-02
    67   -1.023908037166e-13
    68    6.076329747423e-04
    69   -2.008587197161e-13
    70    6.316226928802e-03
    71    1.284019086280e-02
    72    1.363918680760e-02
    73   -6.868565433288e-03
    74   -1.720981345809e-03
    75   -9.779386475833e-14
    76   -3.550598621337e-04
    77    1.515063455924e-04
    78    1.143356445855e-03
    79    6.074816483870e-03
    80    1.976254287834e-02
    81    4.921218807770e-02
    82    2.292657480584e-02
    83    1.298668394191e-01
    84   -1.119026989529e-12
    85   -1.340519752428e-12
    86    1.176394081599e-01
    87   -3.596239906201e-01
    88    5.703659629521e-12
    89   -2.203895930602e-12
    90    1.790692146988e-01
    91   -2.680580686068e-01
    92   -1.133573934823e-10
    93   -1.732557226103e-12
    94    1.123546917823e-01
    95    9.988999861515e-02
    96    4.918196057883e-10
    97    1.652784136939e-13
    98    1.292955606712e-01
    99    5.961638910258e-03
   100   -1.338704677462e-10
   101   -7.724475470261e-13
   102    5.720033180268e-04
   103   -1.859867090650e-02
   104    2.322052113206e-12
   105   -2.033168532968e-13
   106   -4.237951623159e-03
   107    1.430123048747e-14
   108   -1.716829672579e-01
   109   -2.559833257424e-01
   110   -1.443867544606e-02
   111    5.971591547018e-02
   112   -1.195159343722e-12
   113   -9.340950399329e-14
   114   -2.883200799709e-02
   115    1.098278450075e-05
   116    8.294896883446e-05
   117    4.370682171031e-04
   118    1.433215650742e-03
   119    3.727746644560e-03
   120    2.521846777175e-03
   121    7.404279298429e-03
   122    1.656264203404e-02
   123   -1.182840643378e-12
   124    2.021890283305e-02
   125   -1.846599901755e-02
   126    2.908925544622e-02
   127   -2.160014010315e-12
   128    3.223025339176e-02
   129    3.282796223882e-02
   130   -1.896393903983e-04
   131   -1.508605084459e-12
   132    1.974428383214e-03
   133   -1.262448732360e-01
   134   -6.290930381239e-04
   135   -2.939557605631e-13
   136   -4.811974099591e-02
   137   -9.067720932244e-03
   138    2.401191844088e-03
   139    7.743086140506e-13
   140   -1.656355442515e-03
   141   -4.703827576425e-03
   142   -1.316198800986e-02
   143   -8.568244068139e-14
   144    6.076329759959e-04
   145    2.013396374172e-13
   146    6.316226935602e-03
   147    1.284019086008e-02
   148    1.363918746604e-02
   149   -6.868562908478e-03
   150    1.720981347532e-03
   151   -9.090906803533e-14
   152   -3.550598618559e-04
   153   -5.691903068715e-06
   154   -4.347060062596e-05
   155   -2.269809993743e-04
   156   -7.619014404038e-04
   157   -1.844675613747e-03
   158    2.227083380554e-05
   159   -4.761834262918e-03
   160    1.440057907760e-03
   161   -1.107313442069e-12
   162   -5.683164272549e-03
   163    1.102809726430e-02
   164    3.272353040924e-03
   165   -1.821049455527e-12
   166   -7.713758105651e-03
   167   -1.209215170348e-02
   168    4.034367304169e-03
   169   -1.426341794621e-12
   170    1.088794462245e-02
   171   -3.930411106041e-02
   172    6.928177475925e-02
   173    2.346163966073e-13
   174   -1.491106543106e-02
   175   -2.761862820255e-03
   176    2.296395037235e-03
   177   -9.109540254055e-13
   178    7.751972683510e-03
   179    2.157136474903e-03
   180   -4.512074500518e-04
   181    1.185324316092e-13
   182    2.548799321669e-04
   183    1.413924356128e-13
   184    1.986877307495e-03
   185    3.653669928484e-03
   186   -5.468793537128e-03
   187   -3.425365970217e-02
   188   -4.179018625969e-04
   189   -7.229295013623e-14
   190   -2.905158864382e-04
   191    8.357730516768e-06
   192    6.269561117521e-05
   193    3.348389182201e-04
   194    1.081577521324e-03
   195    2.870396034208e-03
   196    2.377314194401e-03
   197    6.191689129929e-03
   198    1.567200547164e-12
   199   -9.264729480536e-13
   200   -5.461821759458e-03
   201   -2.187907496185e-02
   202    1.810165123542e-12
   203   -1.691039639384e-12
   204   -1.102715751560e-02
   205   -7.169804868273e-03
   206    3.126550664298e-11
   207   -1.141930318575e-12
   208   -1.643520144042e-02
   209    2.807532560002e-01
   210   -2.256718903560e-10
   211   -1.152546792822e-13
   212   -3.182033391631e-03
   213    1.228004175573e-02
   214    1.137830529421e-10
   215    7.704840154618e-13
   216   -2.116461312905e-02
   217   -5.985508777529e-04
   218    2.895515830266e-12
   219    2.655568454430e-13
   220   -4.466663432167e-04
   221    9.244292050553e-15
   222   -7.644145478962e-05
   223   -2.634801339696e-04
   224    7.358765331916e-04
   225    3.359068790480e-03
   226   -8.034560977680e-03
   227    2.948900310952e-03
   228    1.809638961138e-10
   229   -3.128735726665e-11
   230   -1.114088880169e-02
   231    4.828448585727e-11
   232   -8.277118831427e-12
   233   -2.751972198517e-03
   234    1.182782554992e-11
   235   -1.848093895107e-13
   236    8.974467858287e-03
   237    1.264627660075e-11
   238    2.496896745092e-12
   239    1.902735402319e-02
   240   -1.564856458812e-11
   241    1.880278505980e-12
   242    4.209715399551e-03
   243   -3.783848451057e-02
   244    1.102422541259e-11
   245   -3.747045033966e-13
   246    9.791643604859e-03
   247    8.322983912040e-03
   248   -8.582513891776e-11
   249    2.277783371393e-13
   250    1.716754046045e-03
   251   -3.372923362656e-03
   252   -4.275964826206e-12
   253    8.566738064329e-14
   254    1.490031152027e-04
   255   -1.053737180171e-15
Sym=X
Ene= 2.000000
Spin=Alpha
Occup=1
     1    3.662823615387e-05
     2   -1.338429423565e-04
     3    7.251574105333e-04
     4    6.831538372968e-03
     5    5.569069577963e-05
     6   -4.048164663208e-15
     7    7.435550287276e-05
     8    1.992350879106e-08
     9    1.676660364003e-07
    10    7.757607725374e-07
    11    2.949979763014e-06
    12    1.589087699231e-06
    13   -4.363898834121e-05
    14    3.781882153618e-05
    15   -4.882445694997e-06
    16    1.016748458421e-13
    17   -4.778426175703e-05
    18    7.243982761547e-05
    19    6.768222280378e-05
    20    1.691952724556e-13
    21    2.951499707290e-04
    22   -5.140124660360e-04
    23   -8.937566085129e-04
    24    3.504279142290e-14
    25   -5.955040404186e-04
    26    1.005453198009e-02
    27    1.146667751773e-02
    28    5.173857745677e-13
    29    8.331220880872e-04
    30    3.175666432688e-03
    31    3.624340878098e-04
    32   -9.892057134412e-13
    33   -3.758716045442e-03
    34   -8.080919137897e-05
    35    1.343440386137e-04
    36   -3.521984398784e-14
    37   -1.701678008608e-05
    38    5.254019368373e-14
    39    9.740533926133e-09
    40    1.852060191987e-07
    41    1.417189003764e-07
    42    3.567045794777e-06
    43   -2.037523845345e-05
    44   -1.169442345442e-04
    45    7.822097404962e-05
    46    3.593916263675e-05
    47    1.594866890737e-13
    48   -4.224181604161e-05
    49    3.003843311329e-04
    50    1.289995786551e-05
    51    2.358051676747e-13
    52    1.321754410664e-04
    53   -1.173355855709e-03
    54    1.606139174935e-04
    55    2.404659651033e-13
    56   -5.966993239941e-04
    57    1.941786216862e-02
    58    2.444495964784e-03
    59   -4.053988492789e-13
    60    7.135134155918e-03
    61    4.745066528914e-03
    62    1.432833336227e-03
    63    6.289718888248e-13
    64    8.601701960241e-04
    65    4.933016922723e-05
    66   -3.192753933652e-06
    67   -8.644723960563e-15
    68   -8.061650715811e-05
    69    4.218242471277e-14
    70   -8.805526482608e-06
    71   -3.092027347999e-05
    72    1.715426818130e-04
    73    2.775674919693e-03
    74    9.607724513106e-07
    75    1.008493508767e-14
    76    3.630816845218e-05
    77   -1.937399110870e-07
    78   -1.391235224940e-06
    79   -7.966878397037e-06
    80   -2.389389089716e-05
    81   -7.668846365626e-05
    82   -1.008681519014e-04
    83   -1.440528914881e-04
    84    5.788020646533e-14
    85    2.237175167866e-13
    86   -2.286162129888e-04
    87    7.272091626520e-04
    88    2.652275464855e-14
    89    3.674945906208e-13
    90   -2.134962757209e-04
    91    1.384917750777e-04
    92    8.545680176619e-15
    93    3.284903280197e-13
    94   -1.073322050981e-04
    95   -9.598310070078e-03
    96    2.272893277692e-11
    97    3.357373246538e-13
    98   -5.466136440618e-03
    99    3.502054680674e-03
   100    1.351234852985e-12
   101   -3.513776968338e-13
   102    1.262701800154e-03
   103   -1.110795452093e-05
   104    1.963904901169e-14
   105    3.197826296550e-14
   106    6.588592832705e-06
   107    8.694067899435e-16
   108    3.037184926809e-04
   109    5.499918863945e-04
   110   -1.555548004373e-04
   111   -1.772424159205e-03
   112    1.036548211307e-14
   113    1.914235773681e-14
   114    7.271553562225e-05
   115    9.740534055445e-09
   116    1.852060180060e-07
   117    1.417189009579e-07
   118    3.567045781170e-06
   119   -2.037523841835e-05
   120   -1.169442344918e-04
   121    7.822097379285e-05
   122   -3.593916252796e-05
   123    1.705183898904e-13
   124   -4.224181607358e-05
   125    3.003843317439e-04
   126   -1.289995772916e-05
   127    2.544101859063e-13
   128    1.321754410911e-04
   129   -1.173355855457e-03
   130   -1.606139178241e-04
   131    2.568203951758e-13
   132   -5.966993246810e-04
   133    1.941786216047e-02
   134   -2.444495929150e-03
   135   -4.028707779942e-13
   136    7.135134192873e-03
   137    4.745066528905e-03
   138   -1.432833336419e-03
   139    6.526768004895e-13
   140    8.601701995326e-04
   141    4.933016923081e-05
   142    3.192753932801e-06
   143   -7.968143612030e-15
   144   -8.061650714631e-05
   145   -4.221634761177e-14
   146   -8.805526270901e-06
   147   -3.092027292111e-05
   148    1.715426810398e-04
   149    2.775674914570e-03
   150   -9.607725215275e-07
   151    9.820553841723e-15
   152    3.630816850072e-05
   153    1.992350856365e-08
   154    1.676660349645e-07
   155    7.757607631005e-07
   156    2.949979744063e-06
   157    1.589087570849e-06
   158   -4.363898836081e-05
   159    3.781882137565e-05
   160    4.882445609181e-06
   161    1.179942264478e-13
   162   -4.778426164143e-05
   163    7.243982838118e-05
   164   -6.768222304856e-05
   165    1.918076027024e-13
   166    2.951499707923e-04
   167   -5.140124688521e-04
   168    8.937566100970e-04
   169    5.497899674889e-14
   170   -5.955040422849e-04
   171    1.005453210074e-02
   172   -1.146667756864e-02
   173    5.171368653917e-13
   174    8.331221507171e-04
   175    3.175666435673e-03
   176   -3.624340884681e-04
   177   -1.009405820537e-12
   178   -3.758716047896e-03
   179   -8.080919135484e-05
   180   -1.343440386800e-04
   181   -3.621813985930e-14
   182   -1.701678004366e-05
   183   -5.321078763194e-14
   184    3.662823624266e-05
   185   -1.338429420465e-04
   186    7.251574100157e-04
   187    6.831538375798e-03
   188   -5.569069581379e-05
   189   -2.881278813861e-15
   190    7.435550288860e-05
   191    4.590084086429e-09
   192    1.122610430780e-07
   193    2.086479596348e-07
   194    2.651213053901e-06
   195   -1.834271243652e-05
   196   -6.261188273184e-05
   197    1.515974888873e-04
   198    3.589242956324e-13
   199    2.655632468696e-13
   200   -4.517149176639e-04
   201   -7.461254472119e-04
   202    4.877701942491e-13
   203    7.972545168569e-13
   204    6.243451046888e-04
   205    9.819853444757e-04