[Molden Format]
[Atoms] (Angs)
  H      1    1     -2.14003202      0.00000000      0.38146042
  C      2    6     -1.21205832      0.00000000     -0.17180643
  C      3    6     -1.20429565      0.00000000     -1.56369320
  H      4    1     -2.14371879      0.00000000     -2.09923439
  C      5    6     -0.00000000      0.00000000     -2.26269040
  H      6    1     -0.00000000      0.00000000     -3.34354440
  C      7    6      1.20429565      0.00000000     -1.56369320
  H      8    1      2.14371879      0.00000000     -2.09923439
  C      9    6      1.21205832     -0.00000000     -0.17180643
  H     10    1      2.14003202     -0.00000000      0.38146042
  C     11    6      0.00000000     -0.00000000      0.51110416
 Cl     12   17      0.00000000     -0.00000000      2.24203561
[GTO]
1    0
S    3    1.000000
   3.38650000E+01    2.54938000E-02 
   5.09479000E+00    1.90373000E-01 
   1.15879000E+00    8.52161000E-01 
S    1    1.000000
   3.25840000E-01    1.00000000E+00 
S    1    1.000000
   1.02741000E-01    1.00000000E+00 
S    1    1.000000
   3.60000000E-02    1.00000000E+00 
P    1    1.000000
   7.50000000E-01    1.00000000E+00 

2    0
S    1    1.000000
   4.56324000E+03    1.96665000E-03 
S    1    1.000000
   6.82024000E+02    1.52306000E-02 
S    1    1.000000
   1.54973000E+02    7.61269000E-02 
S    1    1.000000
   4.44553000E+01    2.60801000E-01 
S    1    1.000000
   1.30290000E+01    6.16462000E-01 
S    1    1.000000
   1.82773000E+00    2.21006000E-01 
SP   3    1.000000
   2.09642000E+01    1.14660000E-01   4.02487000E-02 
   4.80331000E+00    9.19999000E-01   2.37594000E-01 
   1.45933000E+00   -3.03068000E-03   8.15854000E-01 
SP   1    1.000000
   4.83456000E-01    1.00000000E+00   1.00000000E+00 
SP   1    1.000000
   1.45585000E-01    1.00000000E+00   1.00000000E+00 
SP   1    1.000000
   4.38000000E-02    1.00000000E+00   1.00000000E+00 
SP   1    1.000000
   1.31927711E-02    1.00000000E+00   1.00000000E+00 
D    1    1.000000
   6.26000000E-01    1.00000000E+00 

3    0
S    1    1.000000
   4.56324000E+03    1.96665000E-03 
S    1    1.000000
   6.82024000E+02    1.52306000E-02 
S    1    1.000000
   1.54973000E+02    7.61269000E-02 
S    1    1.000000
   4.44553000E+01    2.60801000E-01 
S    1    1.000000
   1.30290000E+01    6.16462000E-01 
S    1    1.000000
   1.82773000E+00    2.21006000E-01 
SP   3    1.000000
   2.09642000E+01    1.14660000E-01   4.02487000E-02 
   4.80331000E+00    9.19999000E-01   2.37594000E-01 
   1.45933000E+00   -3.03068000E-03   8.15854000E-01 
SP   1    1.000000
   4.83456000E-01    1.00000000E+00   1.00000000E+00 
SP   1    1.000000
   1.45585000E-01    1.00000000E+00   1.00000000E+00 
SP   1    1.000000
   4.38000000E-02    1.00000000E+00   1.00000000E+00 
SP   1    1.000000
   1.31927711E-02    1.00000000E+00   1.00000000E+00 
D    1    1.000000
   6.26000000E-01    1.00000000E+00 

4    0
S    3    1.000000
   3.38650000E+01    2.54938000E-02 
   5.09479000E+00    1.90373000E-01 
   1.15879000E+00    8.52161000E-01 
S    1    1.000000
   3.25840000E-01    1.00000000E+00 
S    1    1.000000
   1.02741000E-01    1.00000000E+00 
S    1    1.000000
   3.60000000E-02    1.00000000E+00 
P    1    1.000000
   7.50000000E-01    1.00000000E+00 

5    0
S    1    1.000000
   4.56324000E+03    1.96665000E-03 
S    1    1.000000
   6.82024000E+02    1.52306000E-02 
S    1    1.000000
   1.54973000E+02    7.61269000E-02 
S    1    1.000000
   4.44553000E+01    2.60801000E-01 
S    1    1.000000
   1.30290000E+01    6.16462000E-01 
S    1    1.000000
   1.82773000E+00    2.21006000E-01 
SP   3    1.000000
   2.09642000E+01    1.14660000E-01   4.02487000E-02 
   4.80331000E+00    9.19999000E-01   2.37594000E-01 
   1.45933000E+00   -3.03068000E-03   8.15854000E-01 
SP   1    1.000000
   4.83456000E-01    1.00000000E+00   1.00000000E+00 
SP   1    1.000000
   1.45585000E-01    1.00000000E+00   1.00000000E+00 
SP   1    1.000000
   4.38000000E-02    1.00000000E+00   1.00000000E+00 
SP   1    1.000000
   1.31927711E-02    1.00000000E+00   1.00000000E+00 
D    1    1.000000
   6.26000000E-01    1.00000000E+00 

6    0
S    3    1.000000
   3.38650000E+01    2.54938000E-02 
   5.09479000E+00    1.90373000E-01 
   1.15879000E+00    8.52161000E-01 
S    1    1.000000
   3.25840000E-01    1.00000000E+00 
S    1    1.000000
   1.02741000E-01    1.00000000E+00 
S    1    1.000000
   3.60000000E-02    1.00000000E+00 
P    1    1.000000
   7.50000000E-01    1.00000000E+00 

7    0
S    1    1.000000
   4.56324000E+03    1.96665000E-03 
S    1    1.000000
   6.82024000E+02    1.52306000E-02 
S    1    1.000000
   1.54973000E+02    7.61269000E-02 
S    1    1.000000
   4.44553000E+01    2.60801000E-01 
S    1    1.000000
   1.30290000E+01    6.16462000E-01 
S    1    1.000000
   1.82773000E+00    2.21006000E-01 
SP   3    1.000000
   2.09642000E+01    1.14660000E-01   4.02487000E-02 
   4.80331000E+00    9.19999000E-01   2.37594000E-01 
   1.45933000E+00   -3.03068000E-03   8.15854000E-01 
SP   1    1.000000
   4.83456000E-01    1.00000000E+00   1.00000000E+00 
SP   1    1.000000
   1.45585000E-01    1.00000000E+00   1.00000000E+00 
SP   1    1.000000
   4.38000000E-02    1.00000000E+00   1.00000000E+00 
SP   1    1.000000
   1.31927711E-02    1.00000000E+00   1.00000000E+00 
D    1    1.000000
   6.26000000E-01    1.00000000E+00 

8    0
S    3    1.000000
   3.38650000E+01    2.54938000E-02 
   5.09479000E+00    1.90373000E-01 
   1.15879000E+00    8.52161000E-01 
S    1    1.000000
   3.25840000E-01    1.00000000E+00 
S    1    1.000000
   1.02741000E-01    1.00000000E+00 
S    1    1.000000
   3.60000000E-02    1.00000000E+00 
P    1    1.000000
   7.50000000E-01    1.00000000E+00 

9    0
S    1    1.000000
   4.56324000E+03    1.96665000E-03 
S    1    1.000000
   6.82024000E+02    1.52306000E-02 
S    1    1.000000
   1.54973000E+02    7.61269000E-02 
S    1    1.000000
   4.44553000E+01    2.60801000E-01 
S    1    1.000000
   1.30290000E+01    6.16462000E-01 
S    1    1.000000
   1.82773000E+00    2.21006000E-01 
SP   3    1.000000
   2.09642000E+01    1.14660000E-01   4.02487000E-02 
   4.80331000E+00    9.19999000E-01   2.37594000E-01 
   1.45933000E+00   -3.03068000E-03   8.15854000E-01 
SP   1    1.000000
   4.83456000E-01    1.00000000E+00   1.00000000E+00 
SP   1    1.000000
   1.45585000E-01    1.00000000E+00   1.00000000E+00 
SP   1    1.000000
   4.38000000E-02    1.00000000E+00   1.00000000E+00 
SP   1    1.000000
   1.31927711E-02    1.00000000E+00   1.00000000E+00 
D    1    1.000000
   6.26000000E-01    1.00000000E+00 

10    0
S    3    1.000000
   3.38650000E+01    2.54938000E-02 
   5.09479000E+00    1.90373000E-01 
   1.15879000E+00    8.52161000E-01 
S    1    1.000000
   3.25840000E-01    1.00000000E+00 
S    1    1.000000
   1.02741000E-01    1.00000000E+00 
S    1    1.000000
   3.60000000E-02    1.00000000E+00 
P    1    1.000000
   7.50000000E-01    1.00000000E+00 

11    0
S    1    1.000000
   4.56324000E+03    1.96665000E-03 
S    1    1.000000
   6.82024000E+02    1.52306000E-02 
S    1    1.000000
   1.54973000E+02    7.61269000E-02 
S    1    1.000000
   4.44553000E+01    2.60801000E-01 
S    1    1.000000
   1.30290000E+01    6.16462000E-01 
S    1    1.000000
   1.82773000E+00    2.21006000E-01 
SP   3    1.000000
   2.09642000E+01    1.14660000E-01   4.02487000E-02 
   4.80331000E+00    9.19999000E-01   2.37594000E-01 
   1.45933000E+00   -3.03068000E-03   8.15854000E-01 
SP   1    1.000000
   4.83456000E-01    1.00000000E+00   1.00000000E+00 
SP   1    1.000000
   1.45585000E-01    1.00000000E+00   1.00000000E+00 
SP   1    1.000000
   4.38000000E-02    1.00000000E+00   1.00000000E+00 
SP   1    1.000000
   1.31927711E-02    1.00000000E+00   1.00000000E+00 
D    1    1.000000
   6.26000000E-01    1.00000000E+00 

12    0
S    6    1.000000
   1.05819000E+05    7.38000000E-04 
   1.58720000E+04    5.71800000E-03 
   3.61965000E+03    2.94950000E-02 
   1.03080000E+03    1.17286000E-01 
   3.39908000E+02    3.62949000E-01 
   1.24538000E+02    5.84149000E-01 
S    3    1.000000
   1.24538000E+02    1.34177000E-01 
   4.95135000E+01    6.24250000E-01 
   2.08056000E+01    2.91756000E-01 
S    1    1.000000
   6.58346000E+00    1.00000000E+00 
S    1    1.000000
   2.56468000E+00    1.00000000E+00 
S    1    1.000000
   5.59763000E-01    1.00000000E+00 
S    1    1.000000
   1.83273000E-01    1.00000000E+00 
P    5    1.000000
   5.89776000E+02    2.39100000E-03 
   1.39849000E+02    1.85040000E-02 
   4.51413000E+01    8.13770000E-02 
   1.68733000E+01    2.21552000E-01 
   6.74110000E+00    7.72569000E-01 
P    2    1.000000
   6.74110000E+00   -1.57224400E+00 
   2.77152000E+00    9.92389000E-01 
P    1    1.000000
   1.02387000E+00    1.00000000E+00 
P    1    1.000000
   3.81368000E-01    1.00000000E+00 
P    1    1.000000
   1.09437000E-01    1.00000000E+00 
SP   1    1.000000
   4.83000000E-02    1.00000000E+00   1.00000000E+00 
SP   1    1.000000
   1.45481928E-02    1.00000000E+00   1.00000000E+00 
D    1    1.000000
   7.50000000E-01    1.00000000E+00 

[MO]
Sym=X
Ene= 2.000378
Spin=Alpha
Occup=1
     1    3.672359809261e-13
     2    4.021824181686e-13
     3   -1.458983522608e-13
     4    4.282821078756e-12
     5    1.087894051496e-14
     6    1.085809601097e-03
     7    9.789715667473e-14
     8   -4.029732968869e-16
     9    1.889627112048e-15
    10    2.446128400189e-15
    11    9.985309243623e-15
    12    2.693803389687e-14
    13    8.319451798942e-14
    14    6.742768595590e-14
    15    7.090004614599e-13
    16    9.647853280643e-03
    17    1.834750541348e-12
    18   -6.267660471188e-13
    19    9.467028687258e-13
    20    1.641617385985e-02
    21    2.842249883707e-12
    22    2.135133291937e-12
    23    6.501876795002e-13
    24   -1.843738239000e-02
    25    2.385296664006e-12
    26   -1.857800672716e-12
    27    1.659681717044e-12
    28    4.543838410160e-02
    29   -4.860022479445e-12
    30   -3.963443912740e-13
    31    6.035416357788e-12
    32   -1.104741436221e-01
    33    7.209367262149e-12
    34   -3.817679896871e-13
    35    1.051041649970e-14
    36    6.885777828582e-04
    37    2.238559282795e-13
    38    3.724495372680e-03
    39   -2.161963298123e-15
    40   -1.772848832055e-14
    41   -8.658525550271e-14
    42   -2.996957310872e-13
    43   -6.742513389587e-13
    44   -1.659934562069e-13
    45   -1.007849583143e-12
    46   -5.507481508941e-13
    47    1.635138848339e-02
    48   -2.020828981868e-12
    49   -4.414357844599e-13
    50   -8.608761727752e-13
    51    2.823060461727e-02
    52   -3.120070148061e-12
    53    1.187896912962e-12
    54   -1.024745872360e-12
    55    2.690263010120e-02
    56   -2.511647250852e-12
    57   -3.993730201634e-12
    58    9.394452189363e-13
    59   -2.919586132849e-02
    60    2.657192509591e-12
    61   -2.555607032276e-12
    62   -2.193965394797e-12
    63    8.171028240395e-02
    64   -2.396418668632e-12
    65   -2.828753486442e-13
    66    1.703521122630e-13
    67   -5.963823897492e-04
    68    1.809826231956e-13
    69    3.251726628184e-03
    70    1.340658843954e-12
    71    2.007513280628e-12
    72   -9.583235479004e-14
    73    3.037621276972e-12
    74    1.228210183263e-13
    75    1.100531532660e-03
    76    1.728146669623e-14
    77   -8.183901810028e-16
    78   -8.923064230570e-15
    79   -3.943449437085e-14
    80   -1.411068869781e-13
    81   -3.283160826224e-13
    82   -1.387706976384e-13
    83   -6.588701871754e-13
    84    6.977577822800e-14
    85    2.509906307111e-02
    86    3.975433103829e-13
    87    1.120596128995e-12
    88    7.400998117514e-14
    89    4.343409450674e-02
    90    6.147861368891e-13
    91    1.254058894400e-12
    92    7.171818739998e-13
    93    3.731188746639e-02
    94    1.419524816205e-12
    95   -1.471219222276e-11
    96   -4.442537140759e-12
    97    3.277775881845e-02
    98   -6.826695555826e-13
    99   -5.377723885545e-12
   100   -3.798635940960e-13
   101   -7.091498922670e-02
   102    1.860352543767e-12
   103   -3.973716123763e-13
   104    5.239499010239e-14
   105    2.654723648032e-03
   106    2.741852291418e-13
   107    2.099112321373e-14
   108   -4.305710551479e-13
   109   -8.207936850224e-13
   110   -3.596289197514e-13
   111    3.452250709049e-12
   112   -1.357836145935e-14
   113    2.268539154551e-03
   114    2.089639195579e-14
   115   -1.972034400539e-15
   116   -1.765991928453e-14
   117   -8.494409588624e-14
   118   -2.871883162082e-13
   119   -7.179654593551e-13
   120   -3.151811594364e-13
   121   -9.325777728002e-13
   122    3.584872942351e-13
   123    1.635138848351e-02
   124   -2.014683206054e-12
   125    6.492154673251e-13
   126    5.053904521318e-13
   127    2.823060461749e-02
   128   -3.085979806276e-12
   129   -3.261037908770e-13
   130    1.215913483622e-12
   131    2.690263010140e-02
   132   -1.692663381827e-12
   133    2.816652043199e-12
   134   -7.550561078564e-12
   135   -2.919586132834e-02
   136   -2.352430252415e-12
   137   -3.419568850417e-12
   138    1.320298167135e-13
   139    8.171028240573e-02
   140   -4.650300797458e-12
   141   -2.247856308642e-13
   142   -1.635724228655e-13
   143   -5.963823897206e-04
   144    1.903282290332e-13
   145   -3.251726628216e-03
   146    1.208492602069e-12
   147    1.584652926147e-12
   148    9.400453195829e-13
   149    6.031750760681e-12
   150   -1.608183839846e-13
   151    1.100531532647e-03
   152    2.149850040752e-15
   153   -1.756264371271e-16
   154   -5.409784809984e-18
   155   -5.120142380532e-16
   156   -3.727798926355e-15
   157    9.436765654635e-15
   158   -4.413450951975e-15
   159   -5.138875149262e-14
   160   -6.282265447040e-13
   161    9.647853280750e-03
   162    1.799549062122e-12
   163    3.385453853763e-13
   164   -9.257194815914e-13
   165    1.641617385999e-02
   166    2.726883023809e-12
   167   -1.503507208867e-12
   168    2.189525495494e-14
   169   -1.843738238979e-02
   170    1.800114529440e-12
   171    1.362375116485e-11
   172   -9.145426820651e-13
   173    4.543838410150e-02
   174   -6.471285123480e-12
   175   -1.129344691739e-12
   176    2.632073072279e-12
   177   -1.104741436239e-01
   178    1.150467858981e-11
   179   -3.464512808512e-13
   180    2.654529060777e-14
   181    6.885777828266e-04
   182    2.335198060566e-13
   183   -3.724495372712e-03
   184    3.635612618626e-13
   185    2.947416855772e-13
   186    6.927566501004e-13
   187    1.532348954213e-12
   188   -7.199024257085e-14
   189    1.085809601081e-03
   190    8.296166138881e-14
   191   -2.473833798781e-17
   192    7.435107247196e-15
   193    2.745798386147e-14
   194    1.065284155098e-13
   195    2.475120647644e-13
   196    1.287643996017e-13
   197    1.512038581930e-13
   198   -9.311632008116e-15
   199    4.244372450318e-02
   200   -2.369394341260e-12
   201    1.026255036982e-12
   202   -3.133255330411e-14
   203    7.811090840744e-02
   204   -4.204671686004e-12
   205   -7.404000118705e-13
   206    1.030438793779e-12
   207    4.867518736483e-02
   208   -3.813994557471e-12
   209    5.093811366759e-13
   210   -2.033661624239e-12
   211   -6.751366884915e-02
   212    1.667811263645e-11
   213   -3.130947254187e-12
   214   -3.680241915127e-12
   215    1.235287204719e-01
   216   -2.420615728811e-11
   217   -8.420354204524e-13
   218    5.841212759957e-14
   219    2.214245265809e-02
   220    3.354317826293e-13
   221    2.283203037408e-14
   222   -7.771543795671e-13
   223   -1.483013234394e-12
   224    9.891829469106e-13
   225    1.824198685229e-12
   226   -2.163779168633e-12
   227   -1.491045323050e-13
   228   -6.658353213356e-13
   229   -3.296578499942e-01
   230   -4.733616609991e-12
   231   -1.473803009277e-13
   232   -7.910069940127e-02
   233   -1.179628322040e-12
   234    9.389910879790e-13
   235    2.339911319459e-01
   236    2.699996302392e-12
   237    2.136172042099e-12
   238    5.685079321423e-01
   239    6.183944374322e-12
   240    1.316031752191e-12
   241    3.533039788014e-01
   242    1.868097384091e-12
   243   -1.232971322557e-11
   244    8.060909752085e-14
   245   -4.755620273043e-02
   246    1.959766819724e-12
   247    1.257405625868e-11
   248   -4.440981778451e-13
   249    1.929336510955e-02
   250    2.383192730971e-12
   251   -7.166911046799e-13
   252   -4.086348809173e-14
   253   -1.718481106469e-02
   254    3.713124157304e-14
   255    8.380155655567e-15
Sym=X
Ene= 2.000011
Spin=Alpha
Occup=1
     1    1.245113153201e-02
     2    1.751018890137e-02
     3   -1.656839283645e-02
     4    5.068483505315e-02
     5    3.256297987971e-03
     6    7.053813990286e-14
     7    8.152161567069e-04
     8   -1.990282019402e-05
     9   -1.505502290946e-04
    10   -7.960724471577e-04
    11   -2.637773775310e-03
    12   -6.852039857959e-03
    13   -2.253553947235e-03
    14   -1.519835868938e-02
    15   -4.048249825423e-03
    16    2.429399805097e-14
    17    8.523292377861e-03
    18    4.615687360852e-02
    19   -1.017672461255e-03
    20    3.064708616047e-14
    21    8.332452418469e-03
    22   -1.415512521554e-01
    23   -7.915410060001e-02
    24   -9.083725690631e-14
    25   -4.822543915391e-02
    26    1.338698157427e+00
    27    5.252041835995e-01
    28    6.689248659797e-13
    29    7.165625439103e-01
    30    2.589418747323e-02
    31    8.395286991287e-02
    32   -6.095338092580e-12
    33   -2.105481163301e-02
    34    8.641238571930e-04
    35    1.761951975985e-03
    36    1.222146267634e-13
    37    3.407450865849e-03
    38   -2.241555296450e-14
    39    1.435847074228e-07
    40    7.703523454419e-07
    41    6.931250584892e-06
    42    1.349538288093e-05
    43    1.238848464595e-04
    44    5.131725760119e-04
    45    7.129611576654e-05
    46    2.731136827764e-03
    47    1.236243749945e-14
    48    6.023442802969e-03
    49   -3.156785561510e-03
    50    3.086378276566e-03
    51    4.027836805825e-14
    52    1.195861937719e-02
    53    1.666437657929e-02
    54    4.139288981328e-02
    55   -2.085510959434e-14
    56    1.875742239714e-03
    57    1.511668950961e-01
    58   -2.775439549676e-01
    59   -6.122766369041e-13
    60    3.908570346385e-01
    61    1.173903698581e-02
    62   -6.684843964809e-02
    63    6.177219201415e-12
    64    2.372599384019e-02
    65    1.281054134528e-03
    66   -1.061486731844e-03
    67   -7.474614089731e-14
    68   -9.548905287823e-04
    69    4.264534508796e-14
    70   -5.919989766323e-03
    71   -2.900186338185e-03
    72    6.442294056680e-03
    73   -1.976463556695e-02
    74   -2.410357790529e-04
    75    1.502598976689e-14
    76    2.723639827552e-04
    77   -1.119869398830e-16
    78    1.215989490803e-15
    79   -6.743432154665e-15
    80   -3.776837753678e-15
    81   -3.258662594484e-13
    82   -2.087072950013e-12
    83    2.112961886845e-12
    84    1.363060036987e-03
    85    9.424570670534e-15
    86    7.857184718613e-12
    87    4.117704833239e-12
    88    3.400225527288e-03
    89    2.741557239899e-15
    90    9.745969379409e-12
    91   -2.695228860287e-10
    92    2.198755638799e-02
    93    1.704049187978e-13
    94    5.117983753669e-11
    95    1.446011595508e-09
    96   -4.178605484928e-01
    97    6.747422313105e-13
    98    1.353878809103e-09
    99    6.268325187018e-11
   100    4.487241042185e-02
   101   -6.218641696765e-12
   102    1.807184373268e-11
   103   -1.714758223368e-12
   104   -4.503035858268e-04
   105    1.172047332675e-13
   106    1.425439500458e-12
   107    1.976769896680e-16
   108   -3.266188077248e-12
   109   -1.502425326479e-11
   110    3.084001757727e-10
   111    8.568252992361e-10
   112   -4.752928879316e-04
   113   -1.141090325446e-13
   114   -8.490843237847e-13
   115   -1.435847349609e-07
   116   -7.703525528596e-07
   117   -6.931251621831e-06
   118   -1.349538645300e-05
   119   -1.238848550430e-04
   120   -5.131725802772e-04
   121   -7.129612535668e-05
   122    2.731136823482e-03
   123   -9.612991491189e-15
   124   -6.023442820304e-03
   125    3.156785561252e-03
   126    3.086378272334e-03
   127   -5.939415910821e-15
   128   -1.195861939901e-02
   129   -1.666437678382e-02
   130    4.139288968166e-02
   131   -3.364550792600e-14
   132   -1.875742507585e-03
   133   -1.511668969463e-01
   134   -2.775439546513e-01
   135   -6.057370625235e-13
   136   -3.908570350523e-01
   137   -1.173903715295e-02
   138   -6.684843964847e-02
   139    6.196804342991e-12
   140   -2.372599379372e-02
   141   -1.281054133367e-03
   142   -1.061486730199e-03
   143   -8.614801831432e-14
   144    9.548905282528e-04
   145   -3.751027695317e-14
   146    5.919989766410e-03
   147    2.900186336142e-03
   148   -6.442293988734e-03
   149    1.976463550571e-02
   150   -2.410357812666e-04
   151    1.757793671940e-14
   152   -2.723639832609e-04
   153    1.990282016285e-05
   154    1.505502288587e-04
   155    7.960724459750e-04
   156    2.637773771247e-03
   157    6.852039848679e-03
   158    2.253553945853e-03
   159    1.519835867399e-02
   160   -4.048249814927e-03
   161   -1.082191275179e-14
   162   -8.523292376271e-03
   163   -4.615687361039e-02
   164   -1.017672450206e-03
   165   -1.117961200720e-14
   166   -8.332452411361e-03
   167    1.415512523798e-01
   168   -7.915410034264e-02
   169   -2.020738237047e-13
   170    4.822543891222e-02
   171   -1.338698158931e+00
   172    5.252041850163e-01
   173    7.102914474816e-13
   174   -7.165625430614e-01
   175   -2.589418767373e-02
   176    8.395287001572e-02
   177   -6.148632638806e-12
   178    2.105481157565e-02
   179   -8.641238627631e-04
   180    1.761951975179e-03
   181    1.164466571876e-13
   182   -3.407450864366e-03
   183    5.781167907894e-14
   184   -1.245113152895e-02
   185   -1.751018889544e-02
   186    1.656839245989e-02
   187   -5.068483615518e-02
   188    3.256297987666e-03
   189    9.714417904559e-14
   190   -8.152161573899e-04
   191   -6.627646804708e-14
   192   -5.155004324843e-13
   193   -2.577828340726e-12
   194   -8.832260172126e-12
   195   -2.059236513251e-11
   196   -5.540322394322e-12
   197   -3.019924145812e-11
   198   -3.230033689844e-02
   199    6.529238669954e-14
   200   -4.640090489537e-12
   201   -3.657529426600e-12
   202   -4.383538376898e-02
   203    1.059767851624e-13
   204   -7.830466930600e-12
   205    2.713690232261e-10
   206   -1.900549695479e-01
   207    1.027090919616e-13
   208   -4.142701829899e-11
   209    1.575940728147e-09
   210    1.428424861777e+00
   211   -6.732787998483e-13
   212   -9.681990500936e-10
   213    9.700719803474e-11
   214   -2.886792028203e-02
   215    5.558883932019e-12
   216   -9.926238793729e-11
   217   -9.303593303784e-13
   218   -2.121168167454e-02
   219    8.730126201968e-14
   220   -1.165258397435e-12
   221   -3.060456074049e-14
   222   -3.495183768732e-11
   223   -6.300371240108e-11
   224    2.953964989068e-11
   225    4.681040670660e-11
   226   -3.823247941018e-11
   227   -8.843560050041e-11
   228    4.350671621691e-01
   229   -2.956668982891e-10
   230    2.754382044390e-10
   231    1.073247036757e-01
   232   -7.856180784685e-11
   233    7.318970872712e-11
   234   -2.336363049692e-01
   235   -1.119052917363e-11
   236    1.025534116876e-11
   237   -5.627321345585e-01
   238    2.055634653907e-12
   239   -2.826278467987e-12
   240   -3.574250062906e-01
   241    5.843444201073e-13
   242    3.052748938279e-11
   243    6.060972534753e-10
   244    6.127923297963e-03
   245    1.466482196451e-13
   246   -1.586586299663e-10
   247    2.891686737558e-10
   248   -3.524772986869e-02
   249    3.377304076359e-13
   250   -3.005756859623e-11
   251   -6.080112931822e-13
   252    1.390884033163e-02
   253    1.370437457444e-13
   254   -3.384476507479e-12
   255   -1.735989157645e-14
Sym=X
Ene= 2.000000
Spin=Alpha
Occup=1
     1    4.923933893949e-12
     2    1.277842404502e-11
     3   -2.352220284867e-11
     4   -1.418304703432e-10
     5   -4.460178588526e-13
     6   -6.526129771366e-07
     7   -1.422610315980e-12
     8   -1.064114483583e-14
     9   -7.743160583439e-14
    10   -4.104237980337e-13
    11   -1.373525889927e-12
    12   -3.276641177263e-12
    13    7.002385676932e-13
    14   -8.687571945191e-12
    15   -1.896577563314e-12
    16   -4.274556964935e-05
    17    5.701803107633e-12
    18    1.886460836586e-11
    19   -3.842402074945e-12
    20   -7.831240450935e-05
    21   -4.626353536394e-12
    22   -4.218269424948e-11
    23   -9.218760545936e-12
    24    5.343693696149e-05
    25   -2.186537034747e-11
    26    6.484160880969e-10
    27    4.055795441118e-11
    28   -3.719725278835e-04
    29    4.082053275090e-10
    30   -6.206921913548e-11
    31    4.694035478635e-11
    32    1.142992990837e-03
    33    9.519679140454e-11
    34    2.235828372756e-12
    35   -4.180019534528e-12
    36    1.144345349358e-05
    37    2.181790436845e-12
    38   -2.519939938279e-05
    39   -1.873159339926e-15
    40   -2.415848583413e-14
    41   -8.188945025828e-14
    42   -4.221419221966e-13
    43   -1.388791460588e-14
    44    3.323663673196e-12
    45   -3.020805632098e-12
    46    1.307889434233e-12
    47   -8.686710884413e-05
    48    3.895005514483e-12
    49   -1.081765149907e-11
    50    2.279841704315e-12
    51   -1.315301876416e-04
    52    1.304883344048e-12
    53    2.362771582926e-11
    54    1.693129170491e-11
    55   -1.512598131310e-04
    56    1.041099007696e-11
    57   -4.596626844072e-10
    58   -2.394211871770e-10
    59    2.833874660794e-04
    60    4.650763929588e-11
    61   -1.202401637397e-10
    62   -8.249826806531e-11
    63   -9.147206410744e-04
    64   -1.029926820024e-11
    65   -5.212865362658e-13
    66   -1.374461970258e-12
    67    6.821777493784e-06
    68    1.500835339331e-12
    69   -2.100344435320e-05
    70   -3.754893559964e-12
    71   -1.922424315144e-12
    72   -1.595034526467e-12
    73   -8.545366643007e-11
    74   -1.618180757299e-13
    75   -5.384905379074e-06
    76   -7.001118829466e-13
    77    4.580579915576e-16
    78    1.883670265473e-15
    79    1.942680288206e-14
    80    1.733106076278e-14
    81    5.440587293231e-13
    82    2.189167304323e-12
    83   -7.101417543383e-13
    84    4.403089461835e-13
    85   -1.301221978025e-04
    86    5.930731246411e-13
    87   -6.995492861244e-12
    88    1.265934251376e-12
    89   -2.187386638500e-04
    90   -2.825616503300e-12
    91    1.257056308273e-11
    92    1.366321380391e-11
    93   -1.882054997174e-04
    94    2.708023667245e-13
    95    1.826204592414e-10
    96   -2.691591870156e-10
    97   -2.688150581984e-04
    98    1.194645827866e-10
    99   -9.691448537616e-11
   100    2.779031800998e-11
   101    7.812783058600e-04
   102   -3.470222907895e-11
   103    1.323550684962e-12
   104   -3.453081064352e-13
   105   -1.456095527899e-05
   106   -2.050016424205e-13
   107    6.677380120639e-16
   108   -8.676178278476e-13
   109   -3.450869987689e-12
   110    4.427820212488e-12
   111    3.464397672340e-11
   112   -3.172995495211e-13
   113   -1.232509443780e-05
   114   -8.444117954245e-13
   115    2.512665119328e-15
   116    1.844548410507e-14
   117    1.238616486866e-13
   118    3.072740885787e-13
   119    1.585583456046e-12
   120    3.406895194190e-12
   121   -6.071930463399e-13
   122    1.918399911045e-12
   123   -8.686710883939e-05
   124   -2.284447079587e-12
   125   -8.208746872464e-12
   126    1.468596229841e-12
   127   -1.315301876310e-04
   128   -1.145695505054e-11
   129    8.627246016965e-12
   130    2.867764918453e-11
   131   -1.512598131236e-04
   132    1.529040665786e-11
   133   -5.585326406890e-10
   134   -1.418526730423e-10
   135    2.833874660790e-04
   136   -4.333465986071e-10
   137   -1.282683387728e-10
   138   -2.392896208275e-12
   139   -9.147206410220e-04
   140   -3.935178390810e-11
   141   -1.916905662332e-12
   142    1.322493938199e-13
   143    6.821777494597e-06
   144    2.562542988421e-12
   145    2.100344435326e-05
   146    2.573462335206e-12
   147    1.069820626449e-12
   148   -5.771923980718e-12
   149   -4.568647233151e-11
   150   -1.510934976201e-13
   151   -5.384905378661e-06
   152   -1.170352380967e-12
   153    1.044051643598e-14
   154    7.608189456595e-14
   155    4.167545358425e-13
   156    1.356290531013e-12
   157    3.774670895276e-12
   158    2.875009675250e-12
   159    7.132123626813e-12
   160   -2.376260873790e-12
   161   -4.274556964143e-05
   162   -2.829415748654e-12
   163   -2.877971284617e-11
   164    2.287930667177e-12
   165   -7.831240449612e-05
   166   -1.313795887121e-11
   167    1.020008802376e-10
   168   -7.533091067021e-11
   169    5.343693696984e-05
   170    3.592150535548e-11
   171   -1.125647482337e-09
   172    6.492920098972e-10
   173   -3.719725278798e-04
   174   -4.793859236323e-10
   175   -9.828925076963e-11
   176    5.881040301751e-11
   177    1.142992990787e-03
   178    1.234904925249e-10
   179    1.505393481535e-12
   180    5.518940168585e-12
   181    1.144345349302e-05
   182   -1.372945218073e-12
   183    2.519939938207e-05
   184   -7.966406634677e-12
   185   -5.115389653115e-12
   186   -6.341432138423e-12
   187   -2.176390715568e-10
   188    3.423540923806e-12
   189   -6.526129762203e-07
   190   -2.360549338177e-12
   191    2.782324666011e-14
   192    2.064230666364e-13
   193    1.083980838822e-12
   194    3.494238898170e-12
   195    9.673355012168e-12
   196    5.486957896149e-12
   197    8.426879056045e-12
   198   -1.658286973036e-11
   199   -1.817308340009e-04
   200    9.304199643272e-12
   201    1.193662845129e-11
   202   -2.338228970037e-11
   203   -4.545973433281e-04
   204   -2.626956737931e-11
   205   -4.071665613284e-11