[Molden Format]
[Atoms] (Angs)
  H      1    1     -2.14003202      0.00000000      0.38146042
  C      2    6     -1.21205832      0.00000000     -0.17180643
  C      3    6     -1.20429565      0.00000000     -1.56369320
  H      4    1     -2.14371879      0.00000000     -2.09923439
  C      5    6     -0.00000000      0.00000000     -2.26269040
  H      6    1     -0.00000000      0.00000000     -3.34354440
  C      7    6      1.20429565      0.00000000     -1.56369320
  H      8    1      2.14371879      0.00000000     -2.09923439
  C      9    6      1.21205832     -0.00000000     -0.17180643
  H     10    1      2.14003202     -0.00000000      0.38146042
  C     11    6      0.00000000     -0.00000000      0.51110416
 Cl     12   17      0.00000000     -0.00000000      2.24203561
[GTO]
1    0
S    3    1.000000
   3.38650000E+01    2.54938000E-02 
   5.09479000E+00    1.90373000E-01 
   1.15879000E+00    8.52161000E-01 
S    1    1.000000
   3.25840000E-01    1.00000000E+00 
S    1    1.000000
   1.02741000E-01    1.00000000E+00 
S    1    1.000000
   3.60000000E-02    1.00000000E+00 
P    1    1.000000
   7.50000000E-01    1.00000000E+00 

2    0
S    1    1.000000
   4.56324000E+03    1.96665000E-03 
S    1    1.000000
   6.82024000E+02    1.52306000E-02 
S    1    1.000000
   1.54973000E+02    7.61269000E-02 
S    1    1.000000
   4.44553000E+01    2.60801000E-01 
S    1    1.000000
   1.30290000E+01    6.16462000E-01 
S    1    1.000000
   1.82773000E+00    2.21006000E-01 
SP   3    1.000000
   2.09642000E+01    1.14660000E-01   4.02487000E-02 
   4.80331000E+00    9.19999000E-01   2.37594000E-01 
   1.45933000E+00   -3.03068000E-03   8.15854000E-01 
SP   1    1.000000
   4.83456000E-01    1.00000000E+00   1.00000000E+00 
SP   1    1.000000
   1.45585000E-01    1.00000000E+00   1.00000000E+00 
SP   1    1.000000
   4.38000000E-02    1.00000000E+00   1.00000000E+00 
SP   1    1.000000
   1.31927711E-02    1.00000000E+00   1.00000000E+00 
D    1    1.000000
   6.26000000E-01    1.00000000E+00 

3    0
S    1    1.000000
   4.56324000E+03    1.96665000E-03 
S    1    1.000000
   6.82024000E+02    1.52306000E-02 
S    1    1.000000
   1.54973000E+02    7.61269000E-02 
S    1    1.000000
   4.44553000E+01    2.60801000E-01 
S    1    1.000000
   1.30290000E+01    6.16462000E-01 
S    1    1.000000
   1.82773000E+00    2.21006000E-01 
SP   3    1.000000
   2.09642000E+01    1.14660000E-01   4.02487000E-02 
   4.80331000E+00    9.19999000E-01   2.37594000E-01 
   1.45933000E+00   -3.03068000E-03   8.15854000E-01 
SP   1    1.000000
   4.83456000E-01    1.00000000E+00   1.00000000E+00 
SP   1    1.000000
   1.45585000E-01    1.00000000E+00   1.00000000E+00 
SP   1    1.000000
   4.38000000E-02    1.00000000E+00   1.00000000E+00 
SP   1    1.000000
   1.31927711E-02    1.00000000E+00   1.00000000E+00 
D    1    1.000000
   6.26000000E-01    1.00000000E+00 

4    0
S    3    1.000000
   3.38650000E+01    2.54938000E-02 
   5.09479000E+00    1.90373000E-01 
   1.15879000E+00    8.52161000E-01 
S    1    1.000000
   3.25840000E-01    1.00000000E+00 
S    1    1.000000
   1.02741000E-01    1.00000000E+00 
S    1    1.000000
   3.60000000E-02    1.00000000E+00 
P    1    1.000000
   7.50000000E-01    1.00000000E+00 

5    0
S    1    1.000000
   4.56324000E+03    1.96665000E-03 
S    1    1.000000
   6.82024000E+02    1.52306000E-02 
S    1    1.000000
   1.54973000E+02    7.61269000E-02 
S    1    1.000000
   4.44553000E+01    2.60801000E-01 
S    1    1.000000
   1.30290000E+01    6.16462000E-01 
S    1    1.000000
   1.82773000E+00    2.21006000E-01 
SP   3    1.000000
   2.09642000E+01    1.14660000E-01   4.02487000E-02 
   4.80331000E+00    9.19999000E-01   2.37594000E-01 
   1.45933000E+00   -3.03068000E-03   8.15854000E-01 
SP   1    1.000000
   4.83456000E-01    1.00000000E+00   1.00000000E+00 
SP   1    1.000000
   1.45585000E-01    1.00000000E+00   1.00000000E+00 
SP   1    1.000000
   4.38000000E-02    1.00000000E+00   1.00000000E+00 
SP   1    1.000000
   1.31927711E-02    1.00000000E+00   1.00000000E+00 
D    1    1.000000
   6.26000000E-01    1.00000000E+00 

6    0
S    3    1.000000
   3.38650000E+01    2.54938000E-02 
   5.09479000E+00    1.90373000E-01 
   1.15879000E+00    8.52161000E-01 
S    1    1.000000
   3.25840000E-01    1.00000000E+00 
S    1    1.000000
   1.02741000E-01    1.00000000E+00 
S    1    1.000000
   3.60000000E-02    1.00000000E+00 
P    1    1.000000
   7.50000000E-01    1.00000000E+00 

7    0
S    1    1.000000
   4.56324000E+03    1.96665000E-03 
S    1    1.000000
   6.82024000E+02    1.52306000E-02 
S    1    1.000000
   1.54973000E+02    7.61269000E-02 
S    1    1.000000
   4.44553000E+01    2.60801000E-01 
S    1    1.000000
   1.30290000E+01    6.16462000E-01 
S    1    1.000000
   1.82773000E+00    2.21006000E-01 
SP   3    1.000000
   2.09642000E+01    1.14660000E-01   4.02487000E-02 
   4.80331000E+00    9.19999000E-01   2.37594000E-01 
   1.45933000E+00   -3.03068000E-03   8.15854000E-01 
SP   1    1.000000
   4.83456000E-01    1.00000000E+00   1.00000000E+00 
SP   1    1.000000
   1.45585000E-01    1.00000000E+00   1.00000000E+00 
SP   1    1.000000
   4.38000000E-02    1.00000000E+00   1.00000000E+00 
SP   1    1.000000
   1.31927711E-02    1.00000000E+00   1.00000000E+00 
D    1    1.000000
   6.26000000E-01    1.00000000E+00 

8    0
S    3    1.000000
   3.38650000E+01    2.54938000E-02 
   5.09479000E+00    1.90373000E-01 
   1.15879000E+00    8.52161000E-01 
S    1    1.000000
   3.25840000E-01    1.00000000E+00 
S    1    1.000000
   1.02741000E-01    1.00000000E+00 
S    1    1.000000
   3.60000000E-02    1.00000000E+00 
P    1    1.000000
   7.50000000E-01    1.00000000E+00 

9    0
S    1    1.000000
   4.56324000E+03    1.96665000E-03 
S    1    1.000000
   6.82024000E+02    1.52306000E-02 
S    1    1.000000
   1.54973000E+02    7.61269000E-02 
S    1    1.000000
   4.44553000E+01    2.60801000E-01 
S    1    1.000000
   1.30290000E+01    6.16462000E-01 
S    1    1.000000
   1.82773000E+00    2.21006000E-01 
SP   3    1.000000
   2.09642000E+01    1.14660000E-01   4.02487000E-02 
   4.80331000E+00    9.19999000E-01   2.37594000E-01 
   1.45933000E+00   -3.03068000E-03   8.15854000E-01 
SP   1    1.000000
   4.83456000E-01    1.00000000E+00   1.00000000E+00 
SP   1    1.000000
   1.45585000E-01    1.00000000E+00   1.00000000E+00 
SP   1    1.000000
   4.38000000E-02    1.00000000E+00   1.00000000E+00 
SP   1    1.000000
   1.31927711E-02    1.00000000E+00   1.00000000E+00 
D    1    1.000000
   6.26000000E-01    1.00000000E+00 

10    0
S    3    1.000000
   3.38650000E+01    2.54938000E-02 
   5.09479000E+00    1.90373000E-01 
   1.15879000E+00    8.52161000E-01 
S    1    1.000000
   3.25840000E-01    1.00000000E+00 
S    1    1.000000
   1.02741000E-01    1.00000000E+00 
S    1    1.000000
   3.60000000E-02    1.00000000E+00 
P    1    1.000000
   7.50000000E-01    1.00000000E+00 

11    0
S    1    1.000000
   4.56324000E+03    1.96665000E-03 
S    1    1.000000
   6.82024000E+02    1.52306000E-02 
S    1    1.000000
   1.54973000E+02    7.61269000E-02 
S    1    1.000000
   4.44553000E+01    2.60801000E-01 
S    1    1.000000
   1.30290000E+01    6.16462000E-01 
S    1    1.000000
   1.82773000E+00    2.21006000E-01 
SP   3    1.000000
   2.09642000E+01    1.14660000E-01   4.02487000E-02 
   4.80331000E+00    9.19999000E-01   2.37594000E-01 
   1.45933000E+00   -3.03068000E-03   8.15854000E-01 
SP   1    1.000000
   4.83456000E-01    1.00000000E+00   1.00000000E+00 
SP   1    1.000000
   1.45585000E-01    1.00000000E+00   1.00000000E+00 
SP   1    1.000000
   4.38000000E-02    1.00000000E+00   1.00000000E+00 
SP   1    1.000000
   1.31927711E-02    1.00000000E+00   1.00000000E+00 
D    1    1.000000
   6.26000000E-01    1.00000000E+00 

12    0
S    6    1.000000
   1.05819000E+05    7.38000000E-04 
   1.58720000E+04    5.71800000E-03 
   3.61965000E+03    2.94950000E-02 
   1.03080000E+03    1.17286000E-01 
   3.39908000E+02    3.62949000E-01 
   1.24538000E+02    5.84149000E-01 
S    3    1.000000
   1.24538000E+02    1.34177000E-01 
   4.95135000E+01    6.24250000E-01 
   2.08056000E+01    2.91756000E-01 
S    1    1.000000
   6.58346000E+00    1.00000000E+00 
S    1    1.000000
   2.56468000E+00    1.00000000E+00 
S    1    1.000000
   5.59763000E-01    1.00000000E+00 
S    1    1.000000
   1.83273000E-01    1.00000000E+00 
P    5    1.000000
   5.89776000E+02    2.39100000E-03 
   1.39849000E+02    1.85040000E-02 
   4.51413000E+01    8.13770000E-02 
   1.68733000E+01    2.21552000E-01 
   6.74110000E+00    7.72569000E-01 
P    2    1.000000
   6.74110000E+00   -1.57224400E+00 
   2.77152000E+00    9.92389000E-01 
P    1    1.000000
   1.02387000E+00    1.00000000E+00 
P    1    1.000000
   3.81368000E-01    1.00000000E+00 
P    1    1.000000
   1.09437000E-01    1.00000000E+00 
SP   1    1.000000
   4.83000000E-02    1.00000000E+00   1.00000000E+00 
SP   1    1.000000
   1.45481928E-02    1.00000000E+00   1.00000000E+00 
D    1    1.000000
   7.50000000E-01    1.00000000E+00 

[MO]
Sym=X
Ene= -0.011195
Spin=Alpha
Occup=1
     1   -1.301669449540e-04
     2   -1.556946553560e-04
     3    5.694041791837e-05
     4    7.680409885424e-05
     5   -9.372381316960e-05
     6    1.075863097307e-16
     7    9.953001790075e-05
     8   -3.352879229765e-04
     9   -2.595602513625e-03
    10   -1.294836451398e-02
    11   -4.445417720764e-02
    12   -1.050330412538e-01
    13   -3.838400720217e-02
    14   -1.405249805081e-01
    15   -4.855578228488e-05
    16   -1.129483517277e-15
    17    4.278094292898e-05
    18   -6.601948655437e-04
    19    1.126305098076e-04
    20    1.827421080246e-15
    21    4.660048168771e-04
    22   -3.743787312833e-04
    23   -2.102951674224e-04
    24   -3.879192946409e-15
    25   -2.648539487895e-04
    26   -2.142189354972e-04
    27    1.816832764082e-05
    28    1.266131644334e-14
    29    6.764289635922e-05
    30   -1.488104489166e-05
    31   -7.909383288093e-05
    32   -6.375183278520e-14
    33   -8.076529219057e-05
    34   -2.651858574905e-04
    35    3.473062479092e-05
    36    1.938697139274e-16
    37    7.857964283589e-05
    38    3.934652443781e-16
    39   -7.089755489074e-04
    40   -5.488595572820e-03
    41   -2.737953881706e-02
    42   -9.400275643099e-02
    43   -2.220753647839e-01
    44   -8.113597485079e-02
    45   -2.972646002382e-01
    46    3.157430578674e-05
    47    4.416602442035e-16
    48   -4.416771531033e-05
    49   -1.065309225507e-03
    50    2.166905616028e-05
    51   -1.970314964525e-15
    52   -2.373679490843e-04
    53   -7.980306447276e-04
    54   -2.634214000331e-04
    55    3.490178208660e-15
    56    3.386968743903e-06
    57    1.019687640322e-03
    58    3.077238266271e-04
    59   -1.909182102147e-14
    60   -1.546268280282e-04
    61    7.039524731290e-05
    62    1.437793695931e-04
    63    1.250428499169e-13
    64    6.728705705422e-05
    65   -1.997352640649e-04
    66    9.364056262215e-06
    67   -6.099385061470e-16
    68   -1.757396537775e-05
    69    5.372914600679e-16
    70   -2.576964372275e-04
    71   -2.975355307486e-04
    72    3.457987060714e-05
    73    1.460467352403e-04
    74   -1.881297721029e-04
    75   -2.041789511060e-16
    76   -1.337399277397e-04
    77   -1.235499126430e-11
    78   -9.564714880753e-11
    79   -4.771298072473e-10
    80   -1.638066256477e-09
    81   -3.869734578833e-09
    82   -1.404003240512e-09
    83   -5.177165184283e-09
    84    1.142974337452e-04
    85    4.896988190834e-16
    86   -3.259111394219e-12
    87   -6.735243207971e-11
    88    7.853156926243e-04
    89    2.694407579032e-17
    90   -4.162714601287e-11
    91   -2.992012105969e-11
    92   -4.343316946238e-04
    93   -5.278368311746e-16
    94   -1.493514162218e-11
    95   -4.300094176257e-10
    96    6.121949939582e-04
    97    1.728740676851e-14
    98   -8.562796084177e-11
    99   -2.314645638585e-11
   100   -1.423657623251e-04
   101   -1.166563525738e-13
   102    1.858274609574e-12
   103    1.258019141099e-11
   104    4.510504587204e-04
   105    2.324183117463e-16
   106   -1.183131369116e-11
   107    5.059180807597e-16
   108   -7.711791949745e-12
   109   -2.324520901344e-11
   110    1.526819175328e-11
   111   -2.267134568336e-11
   112    6.879516959895e-05
   113    4.832312660128e-16
   114   -1.300613270227e-11
   115    7.089754456052e-04
   116    5.488594773090e-03
   117    2.737953482771e-02
   118    9.400274273411e-02
   119    2.220753324286e-01
   120    8.113596305216e-02
   121    2.972645569222e-01
   122    3.157429802888e-05
   123   -2.636069223858e-15
   124    4.416769910974e-05
   125    1.065308982442e-03
   126    2.166910240973e-05
   127    7.003504393986e-16
   128    2.373678817154e-04
   129    7.980307149263e-04
   130   -2.634214617454e-04
   131   -1.399645100484e-15
   132   -3.386922969439e-06
   133   -1.019687505088e-03
   134    3.077235947111e-04
   135   -9.522735263719e-15
   136    1.546268127270e-04
   137   -7.039522244532e-05
   138    1.437793683184e-04
   139    8.063564543922e-14
   140   -6.728707422790e-05
   141    1.997352232167e-04
   142    9.364035775325e-06
   143   -1.030464829434e-15
   144    1.757396742150e-05
   145   -2.504630785003e-16
   146    2.576963933420e-04
   147    2.975354722865e-04
   148   -3.457978946986e-05
   149   -1.460466186980e-04
   150   -1.881297337882e-04
   151    4.016620038200e-16
   152    1.337399025323e-04
   153    3.352877849246e-04
   154    2.595601444864e-03
   155    1.294835918268e-02
   156    4.445415890303e-02
   157    1.050329980153e-01
   158    3.838399142554e-02
   159    1.405249226157e-01
   160   -4.855577520733e-05
   161    3.901275693531e-16
   162   -4.278094410032e-05
   163    6.601945859529e-04
   164    1.126305432233e-04
   165   -3.354355479935e-16
   166   -4.660047389614e-04
   167    3.743785479502e-04
   168   -2.102950794158e-04
   169    2.073359551680e-15
   170    2.648539864752e-04
   171    2.142193279415e-04
   172    1.816826291371e-05
   173    1.458747790178e-15
   174   -6.764308982534e-05
   175    1.488109633443e-05
   176   -7.909385309706e-05
   177   -1.982402214925e-14
   178    8.076537869606e-05
   179    2.651858148505e-04
   180    3.473063675086e-05
   181    2.043444855480e-17
   182   -7.857964425788e-05
   183   -1.244252457440e-15
   184    1.301668924314e-04
   185    1.556945646749e-04
   186   -5.694038859382e-05
   187   -7.680402817073e-05
   188   -9.372376831271e-05
   189   -5.247448510494e-16
   190   -9.952998722852e-05
   191    1.586300204486e-12
   192    1.227868844794e-11
   193    6.127641735922e-11
   194    2.103897486516e-10
   195    4.980104628640e-10
   196    1.994733841753e-10
   197    6.681969246121e-10
   198    2.781528619751e-05
   199    4.550118641149e-16
   200    8.986552970066e-12
   201   -8.227727227604e-11
   202    5.946100912490e-04
   203    1.700025330289e-15
   204    3.428665545369e-11
   205    1.166559332839e-10
   206   -5.175586314141e-04
   207   -5.758744412512e-16
   208   -6.782406928046e-11
   209   -1.449275415722e-10
   210   -5.336490784385e-06
   211    2.309745875265e-15
   212    2.895874273325e-10
   213    1.469649589896e-12
   214    8.879287018863e-05
   215   -3.027924046832e-14
   216   -7.170831040706e-11
   217    1.302378633885e-11
   218   -3.023928160551e-04
   219   -3.227079084833e-16
   220   -1.417461355643e-11
   221   -5.327370721426e-16
   222   -1.096172939137e-13
   223   -9.037089488683e-14
   224   -1.220366338122e-12
   225    3.838229522053e-12
   226   -6.752273291284e-12
   227    2.301563959882e-11
   228    1.030912571271e-05
   229   -8.415646708597e-15
   230    2.535845885965e-13
   231    6.684696855963e-06
   232   -2.713663097699e-15
   233   -2.485427737466e-13
   234   -2.429736290620e-05
   235   -1.973148740341e-16
   236   -1.209477796234e-12
   237    5.070738172952e-05
   238    6.077167986255e-16
   239    2.481183921653e-12
   240   -7.757415906048e-06
   241    4.546465330469e-16
   242   -1.535135009231e-11
   243   -1.930246549945e-10
   244    2.855461529117e-05
   245   -3.730731565954e-15
   246    4.464634526892e-11
   247   -7.149131870328e-11
   248   -3.347626881571e-05
   249    3.057473302457e-14
   250    3.160727246718e-11
   251   -2.606494959967e-12
   252   -1.829447512732e-05
   253   -2.706675532946e-16
   254    2.567467509741e-13
   255   -1.090469713880e-16
Sym=X
Ene= -0.778692
Spin=Alpha
Occup=1
     1    5.459210856790e-06
     2    1.260398180376e-04
     3    6.819547508315e-05
     4   -1.627579058509e-05
     5    1.503251920552e-05
     6   -1.787023191129e-16
     7   -2.589353839751e-05
     8    1.799017932736e-05
     9    1.393157401838e-04
    10    6.946662814761e-04
    11    2.386219704644e-03
    12    5.625629637670e-03
    13    2.010420579589e-03
    14    7.575433567698e-03
    15   -6.867166520453e-06
    16   -1.121573893426e-15
    17    3.627383373168e-05
    18    9.620483558669e-05
    19    4.692254315874e-05
    20    1.692665938446e-15
    21   -1.522562560374e-04
    22    7.766948412827e-04
    23    5.096683925441e-04
    24   -6.481893350719e-15
    25   -1.526694970124e-04
    26   -2.917315981122e-04
    27   -2.837914573798e-05
    28    3.335628963655e-14
    29    1.927051752129e-04
    30   -7.766961969572e-05
    31   -2.220578928886e-05
    32   -1.085729894691e-13
    33   -3.130888384266e-04
    34    5.684018918214e-05
    35   -3.460511869569e-05
    36    5.305209259181e-16
    37   -2.741089710161e-05
    38   -3.919813096794e-16
    39   -6.020810874529e-05
    40   -4.661846158836e-04
    41   -2.325092854263e-03
    42   -7.985308237116e-03
    43   -1.884939609636e-02
    44   -6.931522495290e-03
    45   -2.532416396028e-02
    46    1.129806264019e-04
    47   -1.176550757298e-16
    48   -5.063205958179e-05
    49    3.465230303060e-04
    50    4.976940072698e-04
    51   -1.535465205439e-15
    52   -3.478323431058e-04
    53   -1.222004580580e-03
    54   -8.103698546034e-04
    55    4.383162536521e-15
    56   -1.327765503456e-04
    57   -5.985284598647e-05
    58   -3.418110393191e-04
    59   -2.496234450951e-14
    60   -2.806500720727e-04
    61   -3.065078692733e-05
    62   -8.212940446119e-06
    63    1.034202170656e-13
    64    1.725216222055e-04
    65   -1.540864348507e-04
    66   -2.902494030288e-04
    67    3.141002621237e-16
    68    1.032363751069e-04
    69    2.168600833605e-16
    70    1.238863774825e-05
    71   -5.832579758170e-06
    72   -3.479156994933e-04
    73   -2.801827015494e-04
    74    6.251835533226e-05
    75   -2.445053621936e-16
    76   -1.589286665049e-05
    77    1.105720443885e-03
    78    8.560142087684e-03
    79    4.270103419766e-02
    80    1.466099305175e-01
    81    3.463301839574e-01
    82    1.265011839162e-01
    83    4.636919823645e-01
    84    5.117736544222e-13
    85   -1.356081342453e-15
    86   -6.646207256056e-05
    87    1.599744085774e-03
    88    5.687162175658e-12
    89    7.603904684363e-16
    90    1.550209921142e-04
    91    2.070479966697e-03
    92   -3.414456232608e-12
    93   -4.473901306294e-15
    94    9.714300511748e-04
    95    5.834641333200e-04
    96    1.802274121544e-12
    97    2.309693188389e-14
    98    2.749226526375e-04
    99    7.439516373881e-05
   100   -1.451115705200e-12
   101   -8.528916735188e-14
   102   -1.629613540341e-04
   103    1.718672871900e-05
   104    3.297764678009e-12
   105   -2.915505322222e-16
   106    1.791516207970e-04
   107   -6.205499328162e-17
   108    3.907446071316e-04
   109    5.490352652288e-04
   110    1.133022035193e-04
   111    1.947283838725e-05
   112    5.138937447891e-13
   113   -8.597800093751e-17
   114    3.475615674726e-04
   115   -6.020810038571e-05
   116   -4.661845511635e-04
   117   -2.325092531410e-03
   118   -7.985307128676e-03
   119   -1.884939347756e-02
   120   -6.931521538443e-03
   121   -2.532416045575e-02
   122   -1.129806261300e-04
   123    9.326681544242e-17
   124   -5.063205813907e-05
   125    3.465230448677e-04
   126   -4.976940063198e-04
   127   -4.088146224180e-16
   128   -3.478323362977e-04
   129   -1.222004572628e-03
   130    8.103698518322e-04
   131    1.175503062073e-15
   132   -1.327765521194e-04
   133   -5.985284362350e-05
   134    3.418110336598e-04
   135   -1.779745685198e-14
   136   -2.806500692024e-04
   137   -3.065078694740e-05
   138    8.212942752006e-06
   139    6.406631534373e-14
   140    1.725216199629e-04
   141   -1.540864303778e-04
   142    2.902494028380e-04
   143   -9.715747873482e-17
   144    1.032363742141e-04
   145   -2.331113743403e-16
   146    1.238864095093e-05
   147   -5.832575906820e-06
   148   -3.479157000110e-04
   149   -2.801826996987e-04
   150   -6.251835775839e-05
   151   -1.706622895617e-16
   152   -1.589286458414e-05
   153    1.799019134635e-05
   154    1.393158332260e-04
   155    6.946667456192e-04
   156    2.386221298186e-03
   157    5.625633402367e-03
   158    2.010421955420e-03
   159    7.575438606481e-03
   160    6.867165066131e-06
   161   -6.217313040851e-16
   162    3.627383403387e-05
   163    9.620485463252e-05
   164   -4.692254071677e-05
   165    3.378164944353e-16
   166   -1.522562631794e-04
   167    7.766948569774e-04
   168   -5.096683995859e-04
   169   -3.814802890211e-15
   170   -1.526694932696e-04
   171   -2.917316586789e-04
   172    2.837916209146e-05
   173    2.755175197284e-14
   174    1.927051636505e-04
   175   -7.766962112762e-05
   176    2.220578795707e-05
   177   -6.991844758699e-14
   178   -3.130888353827e-04
   179    5.684019383563e-05
   180    3.460511921834e-05
   181   -5.631017932460e-17
   182   -2.741089753852e-05
   183    2.981905978202e-16
   184    5.459215211757e-06
   185    1.260398226928e-04
   186    6.819547497837e-05
   187   -1.627579388507e-05
   188   -1.503252218675e-05
   189    7.004447427991e-17
   190   -2.589354086821e-05
   191   -9.297307019876e-07
   192   -7.145999718141e-06
   193   -3.602520102933e-05
   194   -1.222413835979e-04
   195   -3.024080454066e-04
   196   -1.671578167104e-04
   197   -3.589366342328e-04
   198    8.615206841027e-13
   199    1.010037257172e-15
   200    8.237738394125e-07
   201    1.712950889941e-04
   202    8.250987254555e-12
   203   -2.585471621577e-15
   204   -4.608678760018e-05
   205   -1.086517091823e-03
   206   -6.658239656326e-12
   207    8.834572451902e-15
   208    5.943990091509e-04
   209    4.083910870996e-04
   210    1.845745109839e-11
   211   -4.206674456038e-14
   212   -9.019336233806e-04
   213    1.899866244930e-05
   214    1.492788053087e-12
   215    1.219683942004e-13
   216    4.919065792504e-04
   217   -1.971149355565e-05
   218   -4.079879157785e-12
   219    6.678990088693e-17
   220    1.269330165839e-05
   221    3.153292192112e-17
   222   -2.923254698512e-08
   223   -6.227324272597e-07
   224    4.635715082700e-06
   225   -1.047258759879e-05
   226    3.135519512512e-05
   227   -1.573760757352e-04
   228    1.582011037837e-13
   229   -2.829805261787e-16
   230    3.635438303818e-06
   231    9.799435786893e-14
   232   -1.282469313354e-15
   233    2.885092184127e-06
   234   -3.452239745272e-13
   235    1.508568975770e-15
   236   -7.228120322569e-06
   237    6.336359738735e-13
   238    3.537244237142e-16
   239    1.986468863081e-05
   240   -1.498710235660e-13
   241   -2.606207775520e-15
   242    7.779889497612e-05
   243    5.864248788939e-04
   244   -7.338425170500e-13
   245    1.229111992384e-14
   246   -1.414230542083e-04
   247    1.675482584472e-04
   248   -6.614674547073e-13
   249   -1.675265593369e-14
   250   -1.252861253502e-04
   251    2.136236607664e-06
   252   -2.476353217196e-13
   253    3.701039129000e-16
   254   -1.574935778465e-06
   255    2.819336060861e-16
Sym=X
Ene= 0.778692
Spin=Alpha
Occup=0
     1    9.203286479270e-14
     2   -4.706657259689e-13
     3    6.240341788475e-12
     4    4.041391866432e-11
     5   -2.302148271379e-14
     6    3.571232081207e-03
     7   -1.470821092193e-14
     8   -2.554933932846e-17
     9   -8.294466670593e-16
    10    1.680320745688e-15
    11   -2.383951979995e-15
    12    7.852299397696e-15
    13    1.636833636398e-14
    14   -2.168228822364e-15
    15    9.442514485575e-14
    16    3.455649033145e-02
    17   -1.701962627362e-13
    18   -6.572551698738e-14
    19    1.114545119464e-13
    20    5.498312840849e-02
    21   -3.382666060271e-13
    22   -2.633811961433e-12
    23   -3.956830501087e-13
    24    7.310923182834e-02
    25    1.827838562207e-12
    26   -1.368330025302e-10
    27   -6.139973687256e-11
    28    5.373513467687e-03
    29   -1.548983846136e-10
    30    1.258368951643e-11
    31    2.644124651069e-11
    32    7.573575433795e-03
    33    7.929574245177e-12
    34   -1.411817886621e-14
    35   -3.378889031657e-14
    36   -2.444365537131e-02
    37    2.313838326312e-14
    38   -1.529603331206e-02
    39    9.461322715384e-17
    40    5.312072132380e-16
    41    2.867418943499e-15
    42    6.995140425004e-15
    43    2.962864939308e-14
    44    2.236315874922e-14
    45    4.535773723441e-14
    46    2.313456288917e-14
    47    1.053542228238e-01
    48    1.390979799100e-13
    49   -1.445009722468e-13
    50    1.928055339105e-14
    51    1.707461431250e-01
    52    1.540890728840e-13
    53   -3.793839815609e-13
    54    1.387323692597e-12
    55    3.051748849745e-01
    56    3.152150554266e-12
    57    6.683342868559e-11
    58    1.032345793951e-10
    59    2.339764300157e-01
    60   -8.881985697621e-11
    61    1.615474164314e-11
    62   -1.072008140525e-11
    63   -5.417489213412e-02
    64   -1.170206398429e-12
    65    5.480086991688e-14
    66    8.225612329879e-14
    67    1.911446692956e-02
    68    5.396237872985e-15
    69   -1.942222432119e-02
    70    3.555462940862e-15
    71    5.969802419781e-13
    72    3.762511355058e-12
    73    3.109147393971e-11
    74   -2.628842418028e-14
    75    1.124192957571e-02
    76    5.275625311674e-17
    77   -6.874348603901e-17
    78    5.937805439195e-16
    79    3.458750496322e-16
    80    4.223581319690e-15
    81    1.807992575919e-14
    82    6.298323505235e-14
    83   -1.390383456616e-15
    84    7.878849715545e-15
    85   -2.848493523371e-01
    86   -4.074497704660e-14
    87   -3.988482763039e-13
    88    3.574050825408e-14
    89   -3.667525862225e-01
    90   -9.840405935127e-14
    91   -4.808589464096e-13
    92   -1.536486755140e-12
    93   -4.577412891580e-01
    94   -1.802585445632e-12
    95   -8.609550935944e-11
    96    1.253452962017e-10
    97   -2.675499177755e-01
    98   -3.288184873664e-11
    99    1.033916634180e-11
   100    1.940416998137e-11
   101    9.876254932346e-02
   102   -1.280054282658e-11
   103    8.228886436699e-14
   104   -1.201107258322e-14
   105    2.068967634275e-02
   106   -4.715432640592e-14
   107    7.980947126024e-13
   108    1.541751461108e-13
   109   -2.680251547866e-13
   110    1.376787603065e-13
   111   -1.980267549156e-11
   112   -3.287204360929e-15
   113   -2.304759370277e-02
   114   -5.933370302802e-14
   115   -9.600255584689e-17
   116    9.299146317886e-18
   117    1.236243203426e-15
   118    2.570195570939e-15
   119    4.250727506169e-15
   120   -5.406269512234e-15
   121    2.507816383844e-14
   122   -1.581929459058e-14
   123    1.053542228295e-01
   124    9.640863514099e-14
   125   -4.434327207309e-14
   126    5.638541269723e-14
   127    1.707461431343e-01
   128    1.655433127463e-13
   129    2.040930044827e-12
   130   -2.751205286788e-12
   131    3.051748849985e-01
   132    8.314011318114e-13
   133   -8.982931096532e-13
   134    6.798728315636e-11
   135    2.339764300623e-01
   136    1.007982460996e-10
   137    1.710511701129e-11
   138   -1.415871280277e-11
   139   -5.417489147414e-02
   140    2.394531808900e-11
   141    2.925414542521e-14
   142    4.157086790687e-14
   143    1.911446692828e-02
   144    2.292111201892e-14
   145    1.942222432123e-02
   146    5.762260890813e-14
   147    6.274329036158e-13
   148    2.337457774478e-12
   149   -1.422446718781e-11
   150   -5.442056092815e-14
   151    1.124192957660e-02
   152    2.327084701154e-14
   153   -1.606754152378e-17
   154    1.889687890570e-16
   155    3.768869883077e-15
   156    6.124723530337e-15
   157    2.288136472279e-14
   158   -1.482969269008e-14
   159    5.558547968935e-14
   160   -7.647982455496e-14
   161    3.455649032429e-02
   162   -1.949621182687e-13
   163    5.353215840863e-14
   164   -1.684634056382e-13
   165    5.498312839718e-02
   166   -3.832031526028e-13
   167   -3.614168780793e-12
   168    1.824188189542e-12
   169    7.310923179739e-02
   170    4.542154823119e-13
   171    2.005786384894e-10
   172   -1.185361442439e-10
   173    5.373513450733e-03
   174    1.026406254443e-10
   175    1.899455867155e-11
   176   -3.183138847276e-13
   177    7.573574766925e-03
   178   -2.807658618938e-11
   179   -1.729989387153e-14
   180    1.026210808031e-13
   181   -2.444365537237e-02
   182    8.185359476207e-14
   183    1.529603331218e-02
   184    4.082791165462e-14
   185   -5.588575112453e-13
   186    3.053816011356e-12
   187    3.762783269556e-11
   188    1.133698846295e-13
   189    3.571232080458e-03
   190    2.754367582170e-14
   191   -4.396768028097e-16
   192    9.357789341771e-16
   193   -1.084133926275e-15
   194    2.834783930909e-15
   195   -9.600369314864e-15
   196   -3.523685410220e-14
   197    2.469851831413e-14
   198    7.504381604379e-14
   199   -1.139325561199e-01
   200    7.205633118958e-14
   201    1.036695672879e-13
   202    1.070218867792e-13
   203   -1.856390170908e-01
   204    1.294852245416e-13
   205    2.562449179104e-12