[Molden Format]
[Atoms] (Angs)
  H      1    1     -2.14003202      0.00000000      0.38146042
  C      2    6     -1.21205832      0.00000000     -0.17180643
  C      3    6     -1.20429565      0.00000000     -1.56369320
  H      4    1     -2.14371879      0.00000000     -2.09923439
  C      5    6     -0.00000000      0.00000000     -2.26269040
  H      6    1     -0.00000000      0.00000000     -3.34354440
  C      7    6      1.20429565      0.00000000     -1.56369320
  H      8    1      2.14371879      0.00000000     -2.09923439
  C      9    6      1.21205832     -0.00000000     -0.17180643
  H     10    1      2.14003202     -0.00000000      0.38146042
  C     11    6      0.00000000     -0.00000000      0.51110416
 Cl     12   17      0.00000000     -0.00000000      2.24203561
[GTO]
1    0
S    3    1.000000
   3.38650000E+01    2.54938000E-02 
   5.09479000E+00    1.90373000E-01 
   1.15879000E+00    8.52161000E-01 
S    1    1.000000
   3.25840000E-01    1.00000000E+00 
S    1    1.000000
   1.02741000E-01    1.00000000E+00 
S    1    1.000000
   3.60000000E-02    1.00000000E+00 
P    1    1.000000
   7.50000000E-01    1.00000000E+00 

2    0
S    1    1.000000
   4.56324000E+03    1.96665000E-03 
S    1    1.000000
   6.82024000E+02    1.52306000E-02 
S    1    1.000000
   1.54973000E+02    7.61269000E-02 
S    1    1.000000
   4.44553000E+01    2.60801000E-01 
S    1    1.000000
   1.30290000E+01    6.16462000E-01 
S    1    1.000000
   1.82773000E+00    2.21006000E-01 
SP   3    1.000000
   2.09642000E+01    1.14660000E-01   4.02487000E-02 
   4.80331000E+00    9.19999000E-01   2.37594000E-01 
   1.45933000E+00   -3.03068000E-03   8.15854000E-01 
SP   1    1.000000
   4.83456000E-01    1.00000000E+00   1.00000000E+00 
SP   1    1.000000
   1.45585000E-01    1.00000000E+00   1.00000000E+00 
SP   1    1.000000
   4.38000000E-02    1.00000000E+00   1.00000000E+00 
SP   1    1.000000
   1.31927711E-02    1.00000000E+00   1.00000000E+00 
D    1    1.000000
   6.26000000E-01    1.00000000E+00 

3    0
S    1    1.000000
   4.56324000E+03    1.96665000E-03 
S    1    1.000000
   6.82024000E+02    1.52306000E-02 
S    1    1.000000
   1.54973000E+02    7.61269000E-02 
S    1    1.000000
   4.44553000E+01    2.60801000E-01 
S    1    1.000000
   1.30290000E+01    6.16462000E-01 
S    1    1.000000
   1.82773000E+00    2.21006000E-01 
SP   3    1.000000
   2.09642000E+01    1.14660000E-01   4.02487000E-02 
   4.80331000E+00    9.19999000E-01   2.37594000E-01 
   1.45933000E+00   -3.03068000E-03   8.15854000E-01 
SP   1    1.000000
   4.83456000E-01    1.00000000E+00   1.00000000E+00 
SP   1    1.000000
   1.45585000E-01    1.00000000E+00   1.00000000E+00 
SP   1    1.000000
   4.38000000E-02    1.00000000E+00   1.00000000E+00 
SP   1    1.000000
   1.31927711E-02    1.00000000E+00   1.00000000E+00 
D    1    1.000000
   6.26000000E-01    1.00000000E+00 

4    0
S    3    1.000000
   3.38650000E+01    2.54938000E-02 
   5.09479000E+00    1.90373000E-01 
   1.15879000E+00    8.52161000E-01 
S    1    1.000000
   3.25840000E-01    1.00000000E+00 
S    1    1.000000
   1.02741000E-01    1.00000000E+00 
S    1    1.000000
   3.60000000E-02    1.00000000E+00 
P    1    1.000000
   7.50000000E-01    1.00000000E+00 

5    0
S    1    1.000000
   4.56324000E+03    1.96665000E-03 
S    1    1.000000
   6.82024000E+02    1.52306000E-02 
S    1    1.000000
   1.54973000E+02    7.61269000E-02 
S    1    1.000000
   4.44553000E+01    2.60801000E-01 
S    1    1.000000
   1.30290000E+01    6.16462000E-01 
S    1    1.000000
   1.82773000E+00    2.21006000E-01 
SP   3    1.000000
   2.09642000E+01    1.14660000E-01   4.02487000E-02 
   4.80331000E+00    9.19999000E-01   2.37594000E-01 
   1.45933000E+00   -3.03068000E-03   8.15854000E-01 
SP   1    1.000000
   4.83456000E-01    1.00000000E+00   1.00000000E+00 
SP   1    1.000000
   1.45585000E-01    1.00000000E+00   1.00000000E+00 
SP   1    1.000000
   4.38000000E-02    1.00000000E+00   1.00000000E+00 
SP   1    1.000000
   1.31927711E-02    1.00000000E+00   1.00000000E+00 
D    1    1.000000
   6.26000000E-01    1.00000000E+00 

6    0
S    3    1.000000
   3.38650000E+01    2.54938000E-02 
   5.09479000E+00    1.90373000E-01 
   1.15879000E+00    8.52161000E-01 
S    1    1.000000
   3.25840000E-01    1.00000000E+00 
S    1    1.000000
   1.02741000E-01    1.00000000E+00 
S    1    1.000000
   3.60000000E-02    1.00000000E+00 
P    1    1.000000
   7.50000000E-01    1.00000000E+00 

7    0
S    1    1.000000
   4.56324000E+03    1.96665000E-03 
S    1    1.000000
   6.82024000E+02    1.52306000E-02 
S    1    1.000000
   1.54973000E+02    7.61269000E-02 
S    1    1.000000
   4.44553000E+01    2.60801000E-01 
S    1    1.000000
   1.30290000E+01    6.16462000E-01 
S    1    1.000000
   1.82773000E+00    2.21006000E-01 
SP   3    1.000000
   2.09642000E+01    1.14660000E-01   4.02487000E-02 
   4.80331000E+00    9.19999000E-01   2.37594000E-01 
   1.45933000E+00   -3.03068000E-03   8.15854000E-01 
SP   1    1.000000
   4.83456000E-01    1.00000000E+00   1.00000000E+00 
SP   1    1.000000
   1.45585000E-01    1.00000000E+00   1.00000000E+00 
SP   1    1.000000
   4.38000000E-02    1.00000000E+00   1.00000000E+00 
SP   1    1.000000
   1.31927711E-02    1.00000000E+00   1.00000000E+00 
D    1    1.000000
   6.26000000E-01    1.00000000E+00 

8    0
S    3    1.000000
   3.38650000E+01    2.54938000E-02 
   5.09479000E+00    1.90373000E-01 
   1.15879000E+00    8.52161000E-01 
S    1    1.000000
   3.25840000E-01    1.00000000E+00 
S    1    1.000000
   1.02741000E-01    1.00000000E+00 
S    1    1.000000
   3.60000000E-02    1.00000000E+00 
P    1    1.000000
   7.50000000E-01    1.00000000E+00 

9    0
S    1    1.000000
   4.56324000E+03    1.96665000E-03 
S    1    1.000000
   6.82024000E+02    1.52306000E-02 
S    1    1.000000
   1.54973000E+02    7.61269000E-02 
S    1    1.000000
   4.44553000E+01    2.60801000E-01 
S    1    1.000000
   1.30290000E+01    6.16462000E-01 
S    1    1.000000
   1.82773000E+00    2.21006000E-01 
SP   3    1.000000
   2.09642000E+01    1.14660000E-01   4.02487000E-02 
   4.80331000E+00    9.19999000E-01   2.37594000E-01 
   1.45933000E+00   -3.03068000E-03   8.15854000E-01 
SP   1    1.000000
   4.83456000E-01    1.00000000E+00   1.00000000E+00 
SP   1    1.000000
   1.45585000E-01    1.00000000E+00   1.00000000E+00 
SP   1    1.000000
   4.38000000E-02    1.00000000E+00   1.00000000E+00 
SP   1    1.000000
   1.31927711E-02    1.00000000E+00   1.00000000E+00 
D    1    1.000000
   6.26000000E-01    1.00000000E+00 

10    0
S    3    1.000000
   3.38650000E+01    2.54938000E-02 
   5.09479000E+00    1.90373000E-01 
   1.15879000E+00    8.52161000E-01 
S    1    1.000000
   3.25840000E-01    1.00000000E+00 
S    1    1.000000
   1.02741000E-01    1.00000000E+00 
S    1    1.000000
   3.60000000E-02    1.00000000E+00 
P    1    1.000000
   7.50000000E-01    1.00000000E+00 

11    0
S    1    1.000000
   4.56324000E+03    1.96665000E-03 
S    1    1.000000
   6.82024000E+02    1.52306000E-02 
S    1    1.000000
   1.54973000E+02    7.61269000E-02 
S    1    1.000000
   4.44553000E+01    2.60801000E-01 
S    1    1.000000
   1.30290000E+01    6.16462000E-01 
S    1    1.000000
   1.82773000E+00    2.21006000E-01 
SP   3    1.000000
   2.09642000E+01    1.14660000E-01   4.02487000E-02 
   4.80331000E+00    9.19999000E-01   2.37594000E-01 
   1.45933000E+00   -3.03068000E-03   8.15854000E-01 
SP   1    1.000000
   4.83456000E-01    1.00000000E+00   1.00000000E+00 
SP   1    1.000000
   1.45585000E-01    1.00000000E+00   1.00000000E+00 
SP   1    1.000000
   4.38000000E-02    1.00000000E+00   1.00000000E+00 
SP   1    1.000000
   1.31927711E-02    1.00000000E+00   1.00000000E+00 
D    1    1.000000
   6.26000000E-01    1.00000000E+00 

12    0
S    6    1.000000
   1.05819000E+05    7.38000000E-04 
   1.58720000E+04    5.71800000E-03 
   3.61965000E+03    2.94950000E-02 
   1.03080000E+03    1.17286000E-01 
   3.39908000E+02    3.62949000E-01 
   1.24538000E+02    5.84149000E-01 
S    3    1.000000
   1.24538000E+02    1.34177000E-01 
   4.95135000E+01    6.24250000E-01 
   2.08056000E+01    2.91756000E-01 
S    1    1.000000
   6.58346000E+00    1.00000000E+00 
S    1    1.000000
   2.56468000E+00    1.00000000E+00 
S    1    1.000000
   5.59763000E-01    1.00000000E+00 
S    1    1.000000
   1.83273000E-01    1.00000000E+00 
P    5    1.000000
   5.89776000E+02    2.39100000E-03 
   1.39849000E+02    1.85040000E-02 
   4.51413000E+01    8.13770000E-02 
   1.68733000E+01    2.21552000E-01 
   6.74110000E+00    7.72569000E-01 
P    2    1.000000
   6.74110000E+00   -1.57224400E+00 
   2.77152000E+00    9.92389000E-01 
P    1    1.000000
   1.02387000E+00    1.00000000E+00 
P    1    1.000000
   3.81368000E-01    1.00000000E+00 
P    1    1.000000
   1.09437000E-01    1.00000000E+00 
SP   1    1.000000
   4.83000000E-02    1.00000000E+00   1.00000000E+00 
SP   1    1.000000
   1.45481928E-02    1.00000000E+00   1.00000000E+00 
D    1    1.000000
   7.50000000E-01    1.00000000E+00 

[MO]
Sym=X
Ene= -0.005031
Spin=Alpha
Occup=1
     1   -5.231880536318e-07
     2   -8.255690331591e-06
     3    3.153110970098e-04
     4    1.074584458856e-04
     5   -1.619310483051e-05
     6   -4.034410390906e-16
     7    5.289395811973e-05
     8    6.276381828307e-05
     9    4.859026305609e-04
    10    2.423902768521e-03
    11    8.322587168806e-03
    12    1.966244012393e-02
    13    7.265145006725e-03
    14    2.634283578943e-02
    15    7.634666688448e-06
    16   -4.123186970610e-16
    17    7.714101475303e-05
    18   -3.409102049929e-04
    19   -4.943700993594e-06
    20    7.860413873702e-16
    21    4.904096837829e-04
    22    1.140249650059e-03
    23    4.237402062883e-04
    24   -5.407258300953e-15
    25   -5.214027364970e-04
    26    5.477487705750e-04
    27    3.002032125954e-04
    28    3.433183709221e-14
    29   -2.630736292102e-04
    30    9.540863495578e-05
    31    1.913380689142e-05
    32   -1.010168533978e-13
    33    3.432296818114e-04
    34   -2.422502737313e-04
    35    7.668806585963e-06
    36    2.832742936702e-16
    37    1.299528185902e-04
    38   -1.788782845487e-16
    39   -7.722745363526e-04
    40   -5.978717223211e-03
    41   -2.982387778210e-02
    42   -1.023974431126e-01
    43   -2.418848767589e-01
    44   -8.829908987610e-02
    45   -3.238681139330e-01
    46    6.968138446570e-05
    47    2.435634989664e-16
    48   -3.168069714394e-06
    49   -1.285835913968e-03
    50   -3.200668979580e-04
    51   -1.096675740852e-15
    52    1.142040541052e-04
    53   -1.472016011752e-03
    54   -4.826125918257e-04
    55    2.906769237328e-15
    56   -5.164675008943e-04
    57    5.355668916989e-04
    58    3.200655374446e-04
    59   -2.875363240672e-14
    60    1.342089126630e-04
    61    2.568837456712e-05
    62    1.612430366993e-05
    63    1.118104697353e-13
    64   -9.965275802069e-05
    65    5.681180518175e-06
    66    1.461364331609e-04
    67   -1.111749777514e-16
    68   -1.468946704456e-04
    69    4.264728468707e-16
    70   -2.719760889059e-04
    71   -4.098353247067e-04
    72    2.191918865674e-05
    73    2.483638663816e-04
    74   -2.439469586209e-04
    75   -5.827902485961e-16
    76   -1.131839366964e-04
    77   -1.721159786692e-04
    78   -1.332355473404e-03
    79   -6.646918828867e-03
    80   -2.281795235262e-02
    81   -5.392403508055e-02
    82   -1.964200296118e-02
    83   -7.207151149683e-02
    84   -3.789543413292e-12
    85   -4.446178084030e-16
    86   -9.464370919411e-05
    87   -7.815873508578e-04
    88   -4.176236179724e-11
    89    9.418872211665e-18
    90   -3.923996320028e-04
    91    9.391948523367e-04
    92    2.693564236420e-11
    93   -4.241722510050e-15
    94    7.007672859064e-04
    95   -1.513816267989e-03
    96   -5.614854860172e-11
    97    2.322755829050e-14
    98   -1.310449706324e-04
    99   -1.431425388073e-04
   100    9.695316397968e-12
   101   -1.044413038662e-13
   102    5.450207262258e-05
   103    1.760912353383e-04
   104   -2.427431270150e-11
   105   -3.764648292077e-16
   106   -1.606355547356e-04
   107    1.689817682949e-17
   108   -1.204520421871e-04
   109   -1.645584104953e-04
   110    3.658458681175e-04
   111    7.980957665773e-05
   112   -3.781624504654e-12
   113   -2.978304870683e-16
   114   -1.451701465050e-04
   115   -7.722745978186e-04
   116   -5.978717699051e-03
   117   -2.982388015584e-02
   118   -1.023974512622e-01
   119   -2.418848960133e-01
   120   -8.829909691145e-02
   121   -3.238681396992e-01
   122   -6.968138641354e-05
   123    2.313494481742e-15
   124   -3.168080326504e-06
   125   -1.285836020457e-03
   126    3.200668913480e-04
   127   -2.632488951548e-15
   128    1.142040034046e-04
   129   -1.472016076803e-03
   130    4.826126128218e-04
   131    2.855425749451e-15
   132   -5.164674869328e-04
   133    5.355669596159e-04
   134   -3.200655606343e-04
   135   -2.440672299853e-14
   136    1.342088433285e-04
   137    2.568837929631e-05
   138   -1.612432223052e-05
   139    1.048135520500e-13
   140   -9.965274780814e-05
   141    5.681147517623e-06
   142   -1.461364318054e-04
   143    4.645508767046e-16
   144   -1.468946639613e-04
   145   -2.808332263016e-16
   146   -2.719761125123e-04
   147   -4.098353527052e-04
   148    2.191919235812e-05
   149    2.483638643697e-04
   150    2.439469763594e-04
   151   -5.069301657624e-17
   152   -1.131839518968e-04
   153    6.276372978676e-05
   154    4.859019454585e-04
   155    2.423899350929e-03
   156    8.322575435146e-03
   157    1.966241240347e-02
   158    7.265134876317e-03
   159    2.634279868733e-02
   160   -7.634656064220e-06
   161   -7.456471130977e-16
   162    7.714101245126e-05
   163   -3.409103458445e-04
   164    4.943682847063e-06
   165    1.614367170314e-15
   166    4.904097361066e-04
   167    1.140249539457e-03
   168   -4.237401550507e-04
   169   -4.267643518882e-15
   170   -5.214027646538e-04
   171    5.477488906050e-04
   172   -3.002032395644e-04
   173    2.981745681391e-14
   174   -2.630736455009e-04
   175    9.540863758919e-05
   176   -1.913379680774e-05
   177   -9.592862177135e-14
   178    3.432296659084e-04
   179   -2.422503078230e-04
   180   -7.668810319378e-06
   181   -2.801900462406e-16
   182    1.299528218919e-04
   183    1.289356459624e-16
   184   -5.232200127954e-07
   185   -8.255725775313e-06
   186    3.153111026901e-04
   187    1.074584705266e-04
   188    1.619312700686e-05
   189   -7.877409425193e-17
   190    5.289397641194e-05
   191   -3.499195764546e-06
   192   -2.717835745598e-05
   193   -1.349506264933e-04
   194   -4.658271386277e-04
   195   -1.076847207952e-03
   196   -3.023477811177e-04
   197   -1.531011983088e-03
   198   -6.356635555149e-12
   199   -2.416974307064e-16
   200   -3.780681615860e-05
   201   -1.807838250126e-04
   202   -6.056879164010e-11
   203   -2.830331603856e-16
   204    9.879153890467e-05
   205   -5.554425081999e-04
   206    4.730412061693e-11
   207    3.786530305001e-15
   208    2.695578508959e-04
   209   -9.721788306160e-04
   210   -1.172756089967e-11
   211   -3.128755048344e-14
   212    1.506114564807e-03
   213   -5.927494291668e-05
   214   -6.818038785569e-12
   215    6.871615927381e-14
   216   -7.073028133490e-04
   217   -1.403758706159e-05
   218    3.000155273883e-11
   219   -2.318628272017e-16
   220    1.033940982554e-06
   221   -4.478870193945e-16
   222    5.560442099107e-07
   223    2.341277932343e-06
   224   -9.289516399252e-06
   225    1.346739854652e-05
   226   -3.817814726841e-05
   227    2.193842214667e-05
   228   -1.119560189525e-12
   229    8.397962420370e-16
   230   -4.173109412545e-06
   231   -6.387287049249e-13
   232   -3.636703523589e-16
   233   -5.506843878475e-07
   234    2.335331377436e-12
   235    1.395138806454e-15
   236   -5.318388176677e-06
   237   -4.181246281097e-12
   238   -2.074507190450e-15
   239    3.422215046518e-05
   240    2.060047119501e-13
   241    7.169984328725e-15
   242   -4.386545805261e-05
   243   -1.073414990820e-03
   244   -3.352389715707e-13
   245   -5.752385225852e-15
   246    2.323999703535e-04
   247   -6.762812727429e-05
   248    3.190835381928e-12
   249    1.835546494467e-14
   250    1.670152471701e-04
   251   -9.987619885694e-06
   252    1.841309889810e-12
   253    7.845004505159e-17
   254    3.323386554852e-06
   255   -2.109856956494e-17
Sym=X
Ene= -0.008429
Spin=Alpha
Occup=1
     1   -2.019006750896e-06
     2    1.337941868390e-05
     3   -1.075417035592e-04
     4   -1.066560856611e-04
     5    8.281180363942e-06
     6   -1.525813717186e-16
     7   -4.394762848321e-05
     8   -3.594200806479e-05
     9   -2.783335325245e-04
    10   -1.387920598697e-03
    11   -4.767804832813e-03
    12   -1.124488953217e-02
    13   -4.109724050346e-03
    14   -1.514470550473e-02
    15    6.394587518113e-06
    16    4.118995230505e-16
    17   -8.843775236200e-05
    18    1.637361200032e-04
    19   -7.309837831444e-05
    20   -1.096422847974e-15
    21   -4.337899069804e-04
    22   -1.386375656462e-04
    23   -1.212459313095e-05
    24    3.314116963445e-15
    25    2.711921174612e-04
    26    6.704564080835e-04
    27   -3.060292031464e-05
    28   -7.266805122295e-15
    29   -8.786752700146e-06
    30    2.246257664263e-05
    31    8.038011270831e-05
    32    6.522343604092e-14
    33    4.624990246232e-05
    34    2.182801448790e-04
    35   -3.214976305739e-05
    36   -1.335733718311e-16
    37   -1.109814783562e-04
    38   -2.367599361508e-16
    39    7.835438913364e-04
    40    6.065919305196e-03
    41    3.025918663524e-02
    42    1.038909402418e-01
    43    2.454253983560e-01
    44    8.966350934789e-02
    45    3.285668560097e-01
    46   -4.490850538922e-05
    47   -7.775695575356e-16
    48    1.133674888728e-06
    49    1.103868665623e-03
    50   -1.993936859990e-06
    51    1.997798445907e-15
    52    5.286344632673e-05
    53    9.268148270238e-04
    54    3.384851614699e-04
    55   -3.504644809717e-15
    56    1.124715064181e-04
    57   -9.289892778571e-04
    58   -1.777075403665e-04
    59    1.487007125137e-14
    60    6.546414424232e-05
    61   -5.753241845363e-05
    62   -1.358041245054e-04
    63   -1.307704335175e-13
    64   -3.721131255916e-05
    65    1.138737116545e-04
    66   -2.621666367222e-05
    67    7.023060236202e-16
    68    7.441491392934e-05
    69   -5.021755232820e-16
    70    2.643494341905e-04
    71    2.865055633220e-04
    72    1.321452154006e-05
    73   -9.006325818434e-05
    74    1.987393756774e-04
    75    1.368102905885e-16
    76    1.237270776495e-04
    77    7.634209385430e-12
    78    5.910118476728e-11
    79    2.948219505890e-10
    80    1.012170501159e-09
    81    2.391152030639e-09
    82    8.677486066883e-10
    83    3.198951786142e-09
    84   -1.456342545214e-04
    85   -5.029595241210e-16
    86    2.030482543107e-12
    87    4.103186815286e-11
    88   -7.691811644503e-04
    89    4.086706911369e-16
    90    2.514008034526e-11
    91    1.719766830581e-11
    92    3.830214107894e-04
    93    3.863949306494e-16
    94    6.642894221109e-12
    95    2.420868751511e-10
    96   -4.898799661358e-04
    97   -1.514417763255e-14
    98    3.507169476453e-11
    99    1.362857462269e-11
   100    1.386449915487e-04
   101    1.353190844747e-13
   102   -1.799781964938e-12
   103   -7.654772438829e-12
   104   -4.343111179366e-04
   105   -2.156828434073e-16
   106    7.192403149033e-12
   107   -6.469601303235e-16
   108    4.740744359262e-12
   109    1.404075505040e-11
   110   -1.297713999959e-11
   111    2.699957997800e-12
   112   -6.459264657267e-05
   113   -5.500681693853e-16
   114    7.907818275438e-12
   115   -7.835438281999e-04
   116   -6.065918816417e-03
   117   -3.025918419702e-02
   118   -1.038909318705e-01
   119   -2.454253785810e-01
   120   -8.966350213649e-02
   121   -3.285668295357e-01
   122   -4.490850061020e-05
   123    2.456307298409e-15
   124   -1.133665246090e-06
   125   -1.103868518774e-03
   126   -1.993965099674e-06
   127   -1.332137282056e-15
   128   -5.286340685238e-05
   129   -9.268148614414e-04
   130    3.384851958545e-04
   131    7.211132630630e-16
   132   -1.124715301499e-04
   133    9.289892184277e-04
   134   -1.777074077102e-04
   135    8.031255802231e-15
   136   -6.546412752581e-05
   137    5.753240634726e-05
   138   -1.358041248520e-04
   139   -1.066984114389e-13
   140    3.721132402123e-05
   141   -1.138736876637e-04
   142   -2.621665111301e-05
   143    1.090488598577e-15
   144   -7.441491465177e-05
   145    3.049435094077e-16
   146   -2.643494074797e-04
   147   -2.865055273671e-04
   148   -1.321456875049e-05
   149    9.006319261563e-05
   150    1.987393523710e-04
   151   -5.270253886111e-16
   152   -1.237270624575e-04
   153    3.594208920482e-05
   154    2.783341606965e-04
   155    1.387923732191e-03
   156    4.767815591438e-03
   157    1.124491494574e-02
   158    4.109733322813e-03
   159    1.514473953127e-02
   160    6.394583304239e-06
   161   -1.524921649685e-16
   162    8.843775287975e-05
   163   -1.637359542514e-04
   164   -7.309839802973e-05
   165   -2.477608326482e-16
   166    4.337898596676e-04
   167    1.386376680317e-04
   168   -1.212464450009e-05
   169   -1.442118481594e-15
   170   -2.711921363147e-04
   171   -6.704566285740e-04
   172   -3.060289598101e-05
   173   -1.426392667159e-16
   174    8.786861884648e-06
   175   -2.246260587646e-05
   176    8.038012427808e-05
   177    4.243814276074e-14
   178   -4.624995747406e-05
   179   -2.182801190088e-04
   180   -3.214977005794e-05
   181    2.266385113301e-16
   182    1.109814787994e-04
   183    7.879983046485e-16
   184    2.019037724628e-06
   185   -1.337936554639e-05
   186    1.075416881994e-04
   187    1.066560548646e-04
   188    8.281153907126e-06
   189    4.704603950395e-16
   190    4.394761027236e-05
   191   -9.323865264424e-13
   192   -7.218796746900e-12
   193   -3.602530459992e-11
   194   -1.236883292123e-10
   195   -2.928108572650e-10
   196   -1.174315083548e-10
   197   -3.927586437590e-10
   198    3.776031349459e-05
   199   -4.008107111150e-16
   200   -5.239524199192e-12
   201    4.870859242441e-11
   202   -1.845410633336e-04
   203   -6.352879105550e-16
   204   -2.038132750434e-11
   205   -6.884696789698e-11
   206    2.194754434368e-04
   207    2.241551530401e-16
   208    3.961798688712e-11
   209    6.394050217296e-11
   210    2.635439007500e-04
   211   -4.984247083596e-15
   212   -1.653508806257e-10
   213   -1.345268461680e-12
   214   -8.140442289912e-05
   215    1.939492655768e-14
   216    4.807700653216e-11
   217   -7.669645636858e-12
   218    1.021421834032e-04
   219    2.611683594024e-16
   220    8.360429003196e-12
   221    3.871983670823e-16
   222    6.226347279380e-14
   223    4.786110873127e-14
   224    7.321280818823e-13
   225   -2.261071512561e-12
   226    3.973892672494e-12
   227   -1.333709252224e-11
   228   -1.966367740704e-06
   229    6.608756496406e-15
   230   -1.717013826991e-13
   231   -2.496960686157e-06
   232    1.824435452137e-15
   233    1.393136964738e-13
   234    8.697231647010e-06
   235    7.429211078988e-16
   236    7.346535377493e-13
   237   -2.951373197514e-05
   238   -2.572691079047e-16
   239   -1.483946867244e-12
   240    1.498473843487e-05
   241   -5.961549764125e-16
   242    8.968198398900e-12
   243    1.133563284302e-10
   244   -5.052318852464e-05
   245    4.322963770375e-15
   246   -2.637417135764e-11
   247    3.820015162693e-11
   248    2.352441027215e-05
   249   -2.996568126424e-14
   250   -1.895242121650e-11
   251    1.532814566582e-12
   252    7.275148028798e-06
   253    1.056436136309e-16
   254   -1.364883656922e-13
   255    2.280447259720e-16
Sym=X
Ene= -0.801332
Spin=Alpha
Occup=1
     1    1.174581084764e-06
     2   -1.145106236063e-04
     3   -9.195347395545e-05
     4   -3.378982101469e-10
     5   -8.800129971632e-06
     6    2.042693662891e-16
     7    1.893656980210e-05
     8   -5.548532592201e-06
     9   -4.299628628851e-05
    10   -2.141982822944e-04
    11   -7.365942370357e-04
    12   -1.729121998371e-03
    13   -5.943125125573e-04
    14   -2.359471659730e-03
    15    7.056783795261e-06
    16    1.159595678982e-15
    17   -4.122251069837e-05
    18   -4.172927560466e-05
    19   -4.319258586118e-05
    20   -1.854618350782e-15
    21    1.118894753749e-04
    22   -8.298240191625e-04
    23   -5.285029516049e-04
    24    6.926852554850e-15
    25    1.826620266469e-04
    26    2.069531146165e-04
    27   -9.684345000019e-07
    28   -3.721324035930e-14
    29   -1.533310417886e-04
    30    6.546403721178e-05
    31    1.868870703242e-05
    32    1.311254518185e-13
    33    2.826510533925e-04
    34   -3.647551128212e-05
    35    3.547666670100e-05
    36   -5.485793485345e-16
    37    1.938550350555e-05
    38    4.044843438657e-16
    39    1.220041208717e-04
    40    9.445905048830e-04
    41    4.711545129579e-03
    42    1.617895299998e-02
    43    3.820454045244e-02
    44    1.399568812843e-02
    45    5.123922621487e-02
    46   -1.185070563452e-04
    47    6.385858998014e-17
    48    5.273298215443e-05
    49   -2.376789066180e-04
    50   -4.732085661183e-04
    51    1.577857317439e-15
    52    3.493142883159e-04
    53    1.311035652428e-03
    54    8.360778173537e-04
    55   -4.743410955328e-15
    56    1.599056742863e-04
    57    3.766517299773e-06
    58    2.930915414024e-04
    59    2.807324114159e-14
    60    2.728223958551e-04
    61    2.566340863572e-05
    62    6.811206504445e-06
    63   -1.242205433564e-13
    64   -1.651829764024e-04
    65    1.592302084638e-04
    66    2.792829585899e-04
    67   -3.079010580604e-16
    68   -9.444103970614e-05
    69   -2.649974983287e-16
    70    1.031514377219e-05
    71    3.946521646527e-05
    72    3.377316030638e-04
    73    2.499989850543e-04
    74   -4.259415744682e-05
    75    2.725857957270e-16
    76    2.623691837404e-05
    77   -1.095797230072e-03
    78   -8.483327543261e-03
    79   -4.231781285346e-02
    80   -1.452944312026e-01
    81   -3.432211143456e-01
    82   -1.253709458966e-01
    83   -4.595390888755e-01
    84   -9.626896301592e-14
    85    1.365779657143e-15
    86    7.220213655768e-05
    87   -1.534864057730e-03
    88   -1.027071846011e-12
    89   -8.431555870149e-16
    90   -1.231732480369e-04
    91   -2.130246434348e-03
    92    5.959503628857e-13
    93    4.760136727062e-15
    94   -1.012835544567e-03
    95   -3.787376057705e-04
    96    2.738439642882e-12
    97   -2.574052363436e-14
    98   -2.411485764067e-04
    99   -5.970549131658e-05
   100    6.371716280464e-13
   101    1.051382763847e-13
   102    1.601251752608e-04
   103   -3.156843210956e-05
   104   -5.827366922273e-13
   105    3.172236262510e-16
   106   -1.666683156407e-04
   107    5.731647689674e-17
   108   -3.848875463446e-04
   109   -5.402563357783e-04
   110   -1.406602320057e-04
   111   -1.600276744682e-05
   112   -8.866393437497e-14
   113    1.084772289901e-16
   114   -3.363025072872e-04
   115    1.220041193406e-04
   116    9.445904930249e-04
   117    4.711545070431e-03
   118    1.617895279689e-02
   119    3.820453997267e-02
   120    1.399568795317e-02
   121    5.123922557275e-02
   122    1.185070563020e-04
   123   -3.253461099389e-16
   124    5.273298191008e-05
   125   -2.376789093012e-04
   126    4.732085659310e-04
   127    5.726989279796e-16
   128    3.493142872687e-04
   129    1.311035651271e-03
   130   -8.360778164573e-04
   131   -1.552608590227e-15
   132    1.599056741289e-04
   133    3.766498605111e-06
   134   -2.930915288682e-04
   135    2.062640907180e-14
   136    2.728223953623e-04
   137    2.566340743524e-05
   138   -6.811207005845e-06
   139   -8.462997745555e-14
   140   -1.651829753529e-04
   141    1.592302077294e-04
   142   -2.792829585593e-04
   143    6.541813337897e-17
   144   -9.444103957278e-05
   145    2.663727697724e-16
   146    1.031514319221e-05
   147    3.946521574634e-05
   148    3.377316020752e-04
   149    2.499989796913e-04
   150    4.259415789082e-05
   151    1.633246162488e-16
   152    2.623691801255e-05
   153   -5.548534515899e-06
   154   -4.299630117698e-05
   155   -2.141983565725e-04
   156   -7.365944920486e-04
   157   -1.729122600833e-03
   158   -5.943127327517e-04
   159   -2.359472466042e-03
   160   -7.056783569482e-06
   161    6.777699003685e-16
   162   -4.122251073099e-05
   163   -4.172927864297e-05
   164    4.319258544954e-05
   165   -5.576814067081e-16
   166    1.118894766477e-04
   167   -8.298240220080e-04
   168    5.285029524503e-04
   169    4.203128700462e-15
   170    1.826620256172e-04
   171    2.069531712721e-04
   172    9.684170960944e-07
   173   -3.112228898057e-14
   174   -1.533310333340e-04
   175    6.546403880458e-05
   176   -1.868870663643e-05
   177    9.238843965057e-14
   178    2.826510515994e-04
   179   -3.647551210236e-05
   180   -3.547666680307e-05
   181    7.658069193688e-17
   182    1.938550359460e-05
   183   -3.082117089380e-16
   184    1.174580376520e-06
   185   -1.145106242325e-04
   186   -9.195347339111e-05
   187   -3.339664657272e-10
   188    8.800130432074e-06
   189   -7.137260296039e-17
   190    1.893657019801e-05
   191    5.424049538273e-08
   192    3.738105925407e-07
   193    2.200078766347e-06
   194    6.252993924608e-06
   195    2.676287582301e-05
   196    5.703632864281e-05
   197   -5.088303787417e-06
   198   -1.322225598391e-13
   199   -1.007836435851e-15
   200   -1.505638567252e-06
   201   -1.423054695589e-04
   202   -1.366203691820e-12
   203    2.564384189514e-15
   204    3.200625220312e-05
   205    1.096777046369e-03