[Molden Format]
[Atoms] (Angs)
  H      1    1     -2.14003202      0.00000000      0.38146042
  C      2    6     -1.21205832      0.00000000     -0.17180643
  C      3    6     -1.20429565      0.00000000     -1.56369320
  H      4    1     -2.14371879      0.00000000     -2.09923439
  C      5    6     -0.00000000      0.00000000     -2.26269040
  H      6    1     -0.00000000      0.00000000     -3.34354440
  C      7    6      1.20429565      0.00000000     -1.56369320
  H      8    1      2.14371879      0.00000000     -2.09923439
  C      9    6      1.21205832     -0.00000000     -0.17180643
  H     10    1      2.14003202     -0.00000000      0.38146042
  C     11    6      0.00000000     -0.00000000      0.51110416
 Cl     12   17      0.00000000     -0.00000000      2.24203561
[GTO]
1    0
S    3    1.000000
   3.38650000E+01    2.54938000E-02 
   5.09479000E+00    1.90373000E-01 
   1.15879000E+00    8.52161000E-01 
S    1    1.000000
   3.25840000E-01    1.00000000E+00 
S    1    1.000000
   1.02741000E-01    1.00000000E+00 
S    1    1.000000
   3.60000000E-02    1.00000000E+00 
P    1    1.000000
   7.50000000E-01    1.00000000E+00 

2    0
S    1    1.000000
   4.56324000E+03    1.96665000E-03 
S    1    1.000000
   6.82024000E+02    1.52306000E-02 
S    1    1.000000
   1.54973000E+02    7.61269000E-02 
S    1    1.000000
   4.44553000E+01    2.60801000E-01 
S    1    1.000000
   1.30290000E+01    6.16462000E-01 
S    1    1.000000
   1.82773000E+00    2.21006000E-01 
SP   3    1.000000
   2.09642000E+01    1.14660000E-01   4.02487000E-02 
   4.80331000E+00    9.19999000E-01   2.37594000E-01 
   1.45933000E+00   -3.03068000E-03   8.15854000E-01 
SP   1    1.000000
   4.83456000E-01    1.00000000E+00   1.00000000E+00 
SP   1    1.000000
   1.45585000E-01    1.00000000E+00   1.00000000E+00 
SP   1    1.000000
   4.38000000E-02    1.00000000E+00   1.00000000E+00 
SP   1    1.000000
   1.31927711E-02    1.00000000E+00   1.00000000E+00 
D    1    1.000000
   6.26000000E-01    1.00000000E+00 

3    0
S    1    1.000000
   4.56324000E+03    1.96665000E-03 
S    1    1.000000
   6.82024000E+02    1.52306000E-02 
S    1    1.000000
   1.54973000E+02    7.61269000E-02 
S    1    1.000000
   4.44553000E+01    2.60801000E-01 
S    1    1.000000
   1.30290000E+01    6.16462000E-01 
S    1    1.000000
   1.82773000E+00    2.21006000E-01 
SP   3    1.000000
   2.09642000E+01    1.14660000E-01   4.02487000E-02 
   4.80331000E+00    9.19999000E-01   2.37594000E-01 
   1.45933000E+00   -3.03068000E-03   8.15854000E-01 
SP   1    1.000000
   4.83456000E-01    1.00000000E+00   1.00000000E+00 
SP   1    1.000000
   1.45585000E-01    1.00000000E+00   1.00000000E+00 
SP   1    1.000000
   4.38000000E-02    1.00000000E+00   1.00000000E+00 
SP   1    1.000000
   1.31927711E-02    1.00000000E+00   1.00000000E+00 
D    1    1.000000
   6.26000000E-01    1.00000000E+00 

4    0
S    3    1.000000
   3.38650000E+01    2.54938000E-02 
   5.09479000E+00    1.90373000E-01 
   1.15879000E+00    8.52161000E-01 
S    1    1.000000
   3.25840000E-01    1.00000000E+00 
S    1    1.000000
   1.02741000E-01    1.00000000E+00 
S    1    1.000000
   3.60000000E-02    1.00000000E+00 
P    1    1.000000
   7.50000000E-01    1.00000000E+00 

5    0
S    1    1.000000
   4.56324000E+03    1.96665000E-03 
S    1    1.000000
   6.82024000E+02    1.52306000E-02 
S    1    1.000000
   1.54973000E+02    7.61269000E-02 
S    1    1.000000
   4.44553000E+01    2.60801000E-01 
S    1    1.000000
   1.30290000E+01    6.16462000E-01 
S    1    1.000000
   1.82773000E+00    2.21006000E-01 
SP   3    1.000000
   2.09642000E+01    1.14660000E-01   4.02487000E-02 
   4.80331000E+00    9.19999000E-01   2.37594000E-01 
   1.45933000E+00   -3.03068000E-03   8.15854000E-01 
SP   1    1.000000
   4.83456000E-01    1.00000000E+00   1.00000000E+00 
SP   1    1.000000
   1.45585000E-01    1.00000000E+00   1.00000000E+00 
SP   1    1.000000
   4.38000000E-02    1.00000000E+00   1.00000000E+00 
SP   1    1.000000
   1.31927711E-02    1.00000000E+00   1.00000000E+00 
D    1    1.000000
   6.26000000E-01    1.00000000E+00 

6    0
S    3    1.000000
   3.38650000E+01    2.54938000E-02 
   5.09479000E+00    1.90373000E-01 
   1.15879000E+00    8.52161000E-01 
S    1    1.000000
   3.25840000E-01    1.00000000E+00 
S    1    1.000000
   1.02741000E-01    1.00000000E+00 
S    1    1.000000
   3.60000000E-02    1.00000000E+00 
P    1    1.000000
   7.50000000E-01    1.00000000E+00 

7    0
S    1    1.000000
   4.56324000E+03    1.96665000E-03 
S    1    1.000000
   6.82024000E+02    1.52306000E-02 
S    1    1.000000
   1.54973000E+02    7.61269000E-02 
S    1    1.000000
   4.44553000E+01    2.60801000E-01 
S    1    1.000000
   1.30290000E+01    6.16462000E-01 
S    1    1.000000
   1.82773000E+00    2.21006000E-01 
SP   3    1.000000
   2.09642000E+01    1.14660000E-01   4.02487000E-02 
   4.80331000E+00    9.19999000E-01   2.37594000E-01 
   1.45933000E+00   -3.03068000E-03   8.15854000E-01 
SP   1    1.000000
   4.83456000E-01    1.00000000E+00   1.00000000E+00 
SP   1    1.000000
   1.45585000E-01    1.00000000E+00   1.00000000E+00 
SP   1    1.000000
   4.38000000E-02    1.00000000E+00   1.00000000E+00 
SP   1    1.000000
   1.31927711E-02    1.00000000E+00   1.00000000E+00 
D    1    1.000000
   6.26000000E-01    1.00000000E+00 

8    0
S    3    1.000000
   3.38650000E+01    2.54938000E-02 
   5.09479000E+00    1.90373000E-01 
   1.15879000E+00    8.52161000E-01 
S    1    1.000000
   3.25840000E-01    1.00000000E+00 
S    1    1.000000
   1.02741000E-01    1.00000000E+00 
S    1    1.000000
   3.60000000E-02    1.00000000E+00 
P    1    1.000000
   7.50000000E-01    1.00000000E+00 

9    0
S    1    1.000000
   4.56324000E+03    1.96665000E-03 
S    1    1.000000
   6.82024000E+02    1.52306000E-02 
S    1    1.000000
   1.54973000E+02    7.61269000E-02 
S    1    1.000000
   4.44553000E+01    2.60801000E-01 
S    1    1.000000
   1.30290000E+01    6.16462000E-01 
S    1    1.000000
   1.82773000E+00    2.21006000E-01 
SP   3    1.000000
   2.09642000E+01    1.14660000E-01   4.02487000E-02 
   4.80331000E+00    9.19999000E-01   2.37594000E-01 
   1.45933000E+00   -3.03068000E-03   8.15854000E-01 
SP   1    1.000000
   4.83456000E-01    1.00000000E+00   1.00000000E+00 
SP   1    1.000000
   1.45585000E-01    1.00000000E+00   1.00000000E+00 
SP   1    1.000000
   4.38000000E-02    1.00000000E+00   1.00000000E+00 
SP   1    1.000000
   1.31927711E-02    1.00000000E+00   1.00000000E+00 
D    1    1.000000
   6.26000000E-01    1.00000000E+00 

10    0
S    3    1.000000
   3.38650000E+01    2.54938000E-02 
   5.09479000E+00    1.90373000E-01 
   1.15879000E+00    8.52161000E-01 
S    1    1.000000
   3.25840000E-01    1.00000000E+00 
S    1    1.000000
   1.02741000E-01    1.00000000E+00 
S    1    1.000000
   3.60000000E-02    1.00000000E+00 
P    1    1.000000
   7.50000000E-01    1.00000000E+00 

11    0
S    1    1.000000
   4.56324000E+03    1.96665000E-03 
S    1    1.000000
   6.82024000E+02    1.52306000E-02 
S    1    1.000000
   1.54973000E+02    7.61269000E-02 
S    1    1.000000
   4.44553000E+01    2.60801000E-01 
S    1    1.000000
   1.30290000E+01    6.16462000E-01 
S    1    1.000000
   1.82773000E+00    2.21006000E-01 
SP   3    1.000000
   2.09642000E+01    1.14660000E-01   4.02487000E-02 
   4.80331000E+00    9.19999000E-01   2.37594000E-01 
   1.45933000E+00   -3.03068000E-03   8.15854000E-01 
SP   1    1.000000
   4.83456000E-01    1.00000000E+00   1.00000000E+00 
SP   1    1.000000
   1.45585000E-01    1.00000000E+00   1.00000000E+00 
SP   1    1.000000
   4.38000000E-02    1.00000000E+00   1.00000000E+00 
SP   1    1.000000
   1.31927711E-02    1.00000000E+00   1.00000000E+00 
D    1    1.000000
   6.26000000E-01    1.00000000E+00 

12    0
S    6    1.000000
   1.05819000E+05    7.38000000E-04 
   1.58720000E+04    5.71800000E-03 
   3.61965000E+03    2.94950000E-02 
   1.03080000E+03    1.17286000E-01 
   3.39908000E+02    3.62949000E-01 
   1.24538000E+02    5.84149000E-01 
S    3    1.000000
   1.24538000E+02    1.34177000E-01 
   4.95135000E+01    6.24250000E-01 
   2.08056000E+01    2.91756000E-01 
S    1    1.000000
   6.58346000E+00    1.00000000E+00 
S    1    1.000000
   2.56468000E+00    1.00000000E+00 
S    1    1.000000
   5.59763000E-01    1.00000000E+00 
S    1    1.000000
   1.83273000E-01    1.00000000E+00 
P    5    1.000000
   5.89776000E+02    2.39100000E-03 
   1.39849000E+02    1.85040000E-02 
   4.51413000E+01    8.13770000E-02 
   1.68733000E+01    2.21552000E-01 
   6.74110000E+00    7.72569000E-01 
P    2    1.000000
   6.74110000E+00   -1.57224400E+00 
   2.77152000E+00    9.92389000E-01 
P    1    1.000000
   1.02387000E+00    1.00000000E+00 
P    1    1.000000
   3.81368000E-01    1.00000000E+00 
P    1    1.000000
   1.09437000E-01    1.00000000E+00 
SP   1    1.000000
   4.83000000E-02    1.00000000E+00   1.00000000E+00 
SP   1    1.000000
   1.45481928E-02    1.00000000E+00   1.00000000E+00 
D    1    1.000000
   7.50000000E-01    1.00000000E+00 

[MO]
Sym=X
Ene= -0.002625
Spin=Alpha
Occup=1
     1    3.652556797364e-05
     2   -5.326155534897e-05
     3   -9.788616666810e-05
     4   -4.254360608535e-05
     5    1.982056540112e-05
     6    2.086543040660e-16
     7   -1.091459149454e-06
     8    9.141148079127e-05
     9    7.076435604219e-04
    10    3.530213557750e-03
    11    1.211962858422e-02
    12    2.863882621674e-02
    13    1.048812383110e-02
    14    3.830393288982e-02
    15    9.765888904243e-06
    16    1.307570380247e-15
    17   -3.916542237595e-05
    18    1.357755379722e-04
    19   -2.875211986228e-05
    20   -2.248973350118e-15
    21    6.175276913710e-05
    22   -6.485386959296e-04
    23   -4.380462832984e-04
    24    7.405388621240e-15
    25    1.457917074385e-04
    26   -4.185805613347e-05
    27   -4.761263197097e-05
    28   -4.489548134979e-14
    29   -5.227575957210e-05
    30    3.743270422309e-05
    31    1.058642294798e-05
    32    2.181403366333e-13
    33    2.492361397542e-04
    34   -9.658286494978e-06
    35    3.695304402424e-05
    36   -5.172658237181e-16
    37    2.222707462095e-05
    38    4.057013138487e-16
    39    1.732316773987e-04
    40    1.341174380728e-03
    41    6.689861462776e-03
    42    2.297115606214e-02
    43    5.424982564313e-02
    44    1.984513188145e-02
    45    7.271715286704e-02
    46   -1.207947068692e-04
    47   -5.896654556076e-17
    48    6.448100828981e-05
    49   -1.020373654645e-04
    50   -4.461508334572e-04
    51    1.545111083518e-15
    52    3.916710532305e-04
    53    1.205071864992e-03
    54    7.633859896451e-04
    55   -5.476117264111e-15
    56    1.149275587599e-04
    57   -1.061592748457e-04
    58    1.471732383004e-04
    59    3.375547273631e-14
    60    2.696437261752e-04
    61    9.198085745491e-06
    62    1.998585877392e-06
    63   -1.972864410136e-13
    64   -1.618150924022e-04
    65    1.843287627043e-04
    66    2.653854825320e-04
    67   -3.151406883343e-16
    68   -9.795784053261e-05
    69   -3.502119473445e-16
    70    3.409693030607e-05
    71    6.696412603207e-05
    72    2.783311103872e-04
    73    1.743206673054e-04
    74   -2.207830800208e-05
    75    2.123120293670e-16
    76    3.986662135622e-05
    77   -1.073856592126e-03
    78   -8.313472318424e-03
    79   -4.147050771285e-02
    80   -1.423853911777e-01
    81   -3.363492270024e-01
    82   -1.228715975592e-01
    83   -4.503412620140e-01
    84    8.310701879255e-13
    85    1.325101311612e-15
    86    7.494433686019e-05
    87   -1.455270415982e-03
    88    9.694442689716e-12
    89   -1.103423759149e-15
    90   -7.361363070313e-05
    91   -2.025031118075e-03
    92   -6.077131280239e-12
    93    4.791195681519e-15
    94   -9.576234522796e-04
    95    1.472612946478e-04
    96    1.292111293060e-11
    97   -3.080963512739e-14
    98   -1.234580530755e-04
    99   -3.395022236567e-05
   100   -1.298259444193e-12
   101    1.758924544100e-13
   102    1.614480762248e-04
   103   -4.353280722725e-05
   104    5.658064826445e-12
   105    3.474502213778e-16
   106   -1.534404798867e-04
   107    3.598247266275e-17
   108   -3.725814735762e-04
   109   -5.037565554994e-04
   110   -1.471849445600e-04
   111    1.882901888840e-05
   112    8.878193770219e-13
   113    1.117575882836e-16
   114   -3.195677407425e-04
   115    1.732316913734e-04
   116    1.341174488908e-03
   117    6.689862002447e-03
   118    2.297115791493e-02
   119    5.424983002066e-02
   120    1.984513348100e-02
   121    7.271715872474e-02
   122    1.207947073203e-04
   123   -6.482363535449e-16
   124    6.448101088061e-05
   125   -1.020373409350e-04
   126    4.461508350803e-04
   127    6.440204815752e-16
   128    3.916710657284e-04
   129    1.205071879468e-03
   130   -7.633859933156e-04
   131   -2.437505527183e-15
   132    1.149275542842e-04
   133   -1.061593175776e-04
   134   -1.471732161094e-04
   135    2.648590071481e-14
   136    2.696437347274e-04
   137    9.198082630099e-06
   138   -1.998582497377e-06
   139   -1.599366633603e-13
   140   -1.618150944125e-04
   141    1.843287707001e-04
   142   -2.653854828958e-04
   143    4.963381870805e-17
   144   -9.795784224740e-05
   145    3.216770087938e-16
   146    3.409693570407e-05
   147    6.696413243901e-05
   148    2.783311068555e-04
   149    1.743206578697e-04
   150    2.207830392500e-05
   151    1.151170124742e-16
   152    3.986662492216e-05
   153    9.141150271859e-05
   154    7.076437301779e-04
   155    3.530214404561e-03
   156    1.211963149160e-02
   157    2.863883308531e-02
   158    1.048812634119e-02
   159    3.830394208315e-02
   160   -9.765891554745e-06
   161    8.063079510805e-16
   162   -3.916542169292e-05
   163    1.357755725914e-04
   164    2.875212421381e-05
   165   -9.908052724056e-16
   166    6.175275689180e-05
   167   -6.485386684264e-04
   168    4.380462697454e-04
   169    4.819192747619e-15
   170    1.457917130735e-04
   171   -4.185802448664e-05
   172    4.761261854643e-05
   173   -3.900428946500e-14
   174   -5.227575551803e-05
   175    3.743270548140e-05
   176   -1.058642437529e-05
   177    1.817757915552e-13
   178    2.492361417578e-04
   179   -9.658278431188e-06
   180   -3.695304316149e-05
   181    9.270411176266e-17
   182    2.222707397316e-05
   183   -3.177874378449e-16
   184    3.652557586468e-05
   185   -5.326154649675e-05
   186   -9.788616592609e-05
   187   -4.254360446931e-05
   188   -1.982057088376e-05
   189   -7.297135786542e-17
   190   -1.091463615046e-06
   191   -2.741916306173e-05
   192   -2.123212483389e-04
   193   -1.058792240585e-03
   194   -3.636736109364e-03
   195   -8.578611623318e-03
   196   -3.097435531134e-03
   197   -1.153724548836e-02
   198    1.604383215792e-12
   199   -9.526989495505e-16
   200   -4.371666138753e-05
   201   -7.577077977554e-05
   202    1.481731408746e-11
   203    2.441634792803e-15
   204    4.609341387153e-06
   205    8.621058564525e-04
   206   -1.151891356802e-11
   207   -1.004001173210e-14
   208   -4.937898681415e-04
   209   -6.369491647824e-05
   210   -8.261717981091e-12
   211    5.428212310374e-14
   212    3.791131382446e-04
   213   -1.347779935750e-05
   214    3.873062109204e-13
   215   -2.483160335715e-13
   216   -3.794192014401e-04
   217    2.244921418626e-07
   218   -7.340980489415e-12
   219    1.363116890561e-17
   220    4.464231711945e-06
   221    5.760035655927e-17
   222    6.506758795600e-07
   223    2.107828362942e-06
   224   -5.488540927205e-06
   225    4.967944625864e-06
   226   -2.347243159574e-05
   227    1.190836194474e-04
   228    2.623175176779e-13
   229    1.404937017626e-17
   230   -6.530604329869e-06
   231    1.455532536345e-13
   232    1.239062461316e-15
   233   -3.600466718927e-06
   234   -5.401442392251e-13
   235   -1.762733803171e-15
   236    1.022448582954e-05
   237    9.656535515186e-13
   238    2.363197153105e-16
   239   -1.414290092700e-05
   240    1.787680826140e-13
   241    5.725738160693e-16
   242   -5.910967740947e-05
   243   -2.261286734294e-04
   244    5.229795356884e-13
   245   -1.089629376337e-14
   246    6.138899888215e-05
   247   -6.367985137025e-05
   248   -2.506514572117e-13
   249    2.215337214814e-14
   250    7.535455477826e-05
   251   -3.950356961828e-06
   252   -4.382488483277e-13
   253   -4.031947624930e-16
   254    1.108706536228e-06
   255   -2.604689226096e-16
Sym=X
Ene= -0.250163
Spin=Alpha
Occup=1
     1   -2.509222639125e-05
     2   -5.890592091203e-05
     3    3.065726262757e-04
     4    1.414045020941e-04
     5   -3.064804759987e-05
     6   -3.237825538207e-16
     7    6.227708987993e-05
     8    1.079479068245e-05
     9    8.356991011122e-05
    10    4.169585092187e-04
    11    1.431809147404e-03
    12    3.386003131790e-03
    13    1.325099271443e-03
    14    4.545841514207e-03
    15    1.122739408239e-06
    16   -1.828192898047e-16
    17    7.201205168028e-05
    18   -4.215771449490e-04
    19   -2.664190079368e-05
    20    1.223804273419e-15
    21    5.058630942104e-04
    22    9.692656864556e-04
    23    3.468004724248e-04
    24   -4.824445940740e-15
    25   -4.802642655234e-04
    26    7.280174294743e-04
    27    3.359066527101e-04
    28    3.562949186740e-14
    29   -3.426838424446e-04
    30    1.172400484720e-04
    31    2.489548069469e-05
    32   -1.365076957744e-13
    33    3.678989331314e-04
    34   -2.462672446946e-04
    35    7.650147471761e-06
    36    2.703478488916e-16
    37    1.238181751930e-04
    38   -1.376352775138e-16
    39   -7.649264606194e-04
    40   -5.921824627663e-03
    41   -2.954011453601e-02
    42   -1.014229494558e-01
    43   -2.395835687477e-01
    44   -8.744935618648e-02
    45   -3.207835356339e-01
    46    5.280497230604e-05
    47    5.001076015210e-16
    48   -7.522507073988e-06
    49   -1.300773069210e-03
    50   -3.675455223037e-04
    51   -5.862333382468e-16
    52    1.033850758699e-04
    53   -1.297043797635e-03
    54   -3.783423671110e-04
    55    3.199626344655e-15
    56   -4.581702825734e-04
    57    6.174164490089e-04
    58    4.342676064504e-04
    59   -2.994711338610e-14
    60    1.598485131676e-04
    61    4.156537106161e-05
    62    2.073028905588e-05
    63    1.398721361530e-13
    64   -1.083268586876e-04
    65    1.460060184463e-06
    66    1.644716821303e-04
    67   -1.513100850101e-16
    68   -1.460024990326e-04
    69    4.937103428479e-16
    70   -2.840312833227e-04
    71   -4.336469650345e-04
    72    7.248695500080e-05
    73    3.129363581059e-04
    74   -2.482003176607e-04
    75   -4.940562791374e-16
    76   -1.152455214879e-04
    77   -2.444522024005e-04
    78   -1.892364068925e-03
    79   -9.440402881306e-03
    80   -3.240924996971e-02
    81   -7.658044638652e-02
    82   -2.791568963395e-02
    83   -1.024040087590e-01
    84   -4.145758016607e-12
    85   -1.368420476755e-16
    86   -8.112957340516e-05
    87   -9.250123773443e-04
    88   -4.580405272865e-11
    89    4.199861842629e-16
    90   -3.986245731978e-04
    91    7.333403347596e-04
    92    2.816234034907e-11
    93   -3.617391972573e-15
    94    5.684862546306e-04
    95   -1.875169801385e-03
    96   -4.622888152464e-11
    97    2.456771989433e-14
    98   -2.601425927313e-04
    99   -1.587775099018e-04
   100    8.143477223825e-12
   101   -1.328308382274e-13
   102    6.102103024840e-05
   103    1.732828296864e-04
   104   -2.665468441781e-11
   105   -2.597765470787e-16
   106   -1.708956733932e-04
   107    2.865304801648e-17
   108   -1.316458788033e-04
   109   -1.744189966853e-04
   110    3.490162112132e-04
   111    2.863344119636e-05
   112   -4.165114519488e-12
   113   -3.379658735839e-16
   114   -1.697727171735e-04
   115   -7.649265280064e-04
   116   -5.921825149340e-03
   117   -2.954011713841e-02
   118   -1.014229583905e-01
   119   -2.395835898569e-01
   120   -8.744936389956e-02
   121   -3.207835638821e-01
   122   -5.280497454654e-05
   123    2.585558790971e-15
   124   -7.522518715612e-06
   125   -1.300773186054e-03
   126    3.675455149264e-04
   127   -2.200739895822e-15
   128    1.033850199314e-04
   129   -1.297043865970e-03
   130    3.783423868943e-04
   131    3.462593596413e-15
   132   -4.581702647170e-04
   133    6.174165739339e-04
   134   -4.342676612828e-04
   135   -2.635025734691e-14
   136    1.598484764695e-04
   137    4.156538068730e-05
   138   -2.073030621830e-05
   139    1.368036810633e-13
   140   -1.083268464491e-04
   141    1.460023786593e-06
   142   -1.644716806226e-04
   143    4.218874738586e-16
   144   -1.460024917958e-04
   145   -3.173204416282e-16
   146   -2.840313091771e-04
   147   -4.336469958132e-04
   148    7.248696697103e-05
   149    3.129363820729e-04
   150    2.482003371609e-04
   151    2.683062337059e-17
   152   -1.152455382020e-04
   153    1.079469290153e-05
   154    8.356915313158e-05
   155    4.169547330703e-04
   156    1.431796182705e-03
   157    3.385972503050e-03
   158    1.325088078196e-03
   159    4.545800519505e-03
   160   -1.122727533987e-06
   161   -5.279014794126e-16
   162    7.201204917401e-05
   163   -4.215773003666e-04
   164    2.664188094535e-05
   165    2.136749105683e-15
   166    5.058631517661e-04
   167    9.692655625741e-04
   168   -3.468004130992e-04
   169   -4.019952873302e-15
   170   -4.802642934338e-04
   171    7.280174843748e-04
   172   -3.359066522716e-04
   173    3.175344188088e-14
   174   -3.426838290358e-04
   175    1.172400482314e-04
   176   -2.489547218698e-05
   177   -1.352739080643e-13
   178    3.678989184021e-04
   179   -2.462672821865e-04
   180   -7.650151584323e-06
   181   -2.198177132861e-16
   182    1.238181787451e-04
   183    1.240703186446e-16
   184   -2.509226171924e-05
   185   -5.890596000905e-05
   186    3.065726248251e-04
   187    1.414045064601e-04
   188    3.064807205343e-05
   189    5.290910347799e-18
   190    6.227711005454e-05
   191   -2.746197208610e-06
   192   -2.134811811805e-05
   193   -1.058636351627e-04
   194   -3.659048748214e-04
   195   -8.404394510368e-04
   196   -2.047810685656e-04
   197   -1.213232352404e-03
   198   -7.040547522959e-12
   199   -1.108282311929e-16
   200   -2.218826527646e-05
   201   -2.297872437985e-04
   202   -6.686830886425e-11
   203    3.242326387179e-16
   204    1.371707797662e-04
   205   -3.773221233185e-04
   206    5.269606042423e-11
   207    3.674272215789e-15
   208    1.922016486268e-04
   209   -1.160352169520e-03
   210   -1.897447955385e-11
   211   -3.230516778302e-14
   212    1.764292807424e-03
   213   -5.940334418898e-05
   214   -5.525252647181e-12
   215    1.130461000800e-13
   216   -7.282229906230e-04
   217   -3.039856807057e-06
   218    3.313744215275e-11
   219   -2.309061060584e-16
   220   -8.681740181465e-06
   221   -4.684714861801e-16
   222    2.112739189954e-07
   223    1.503327947277e-06
   224   -8.534811929167e-06
   225    1.892157008687e-05
   226   -4.597737613391e-05
   227    3.257985333930e-05
   228   -1.212447512715e-12
   229    8.835275586669e-16
   230   -2.856736931472e-06
   231   -7.002471268562e-13
   232   -2.225197502799e-16
   233   -6.201990326324e-07
   234    2.555771466905e-12
   235    1.319080258306e-15
   236   -3.243695830387e-06
   237   -4.633100715240e-12
   238   -2.089866788457e-15
   239    3.538629634713e-05
   240   -1.382747603390e-13
   241    7.819784059741e-15
   242   -5.601769948891e-05
   243   -1.243417796007e-03
   244    1.162237699473e-13
   245   -7.035771992262e-15
   246    2.702264992248e-04
   247   -1.458985944984e-04
   248    2.725365775860e-12
   249    1.574940887454e-14
   250    1.887294013276e-04
   251   -6.539520343468e-06
   252    1.987965756113e-12
   253    2.404531408457e-17
   254    3.230726039488e-06
   255   -9.900479550858e-17
Sym=X
Ene= -0.540445
Spin=Alpha
Occup=1
     1   -1.628862695111e-05
     2   -3.714028088398e-05
     3    1.017318117451e-04
     4    1.013090633408e-04
     5   -1.725206488477e-05
     6    1.412669069590e-16
     7    5.048052164738e-05
     8   -4.291343476321e-06
     9   -3.313831043552e-05
    10   -1.658274942239e-04
    11   -5.667741631190e-04
    12   -1.357275755526e-03
    13   -4.956268324517e-04
    14   -1.726304723917e-03
    15   -1.331214434321e-05
    16   -4.973396629856e-16
    17    8.390224823146e-05
    18   -2.149498995755e-04
    19    7.363905646108e-05
    20    1.190806837430e-15
    21    4.417293148741e-04
    22    7.743114978578e-05
    23   -1.284800906254e-05
    24   -3.442937262952e-15
    25   -2.768577117286e-04
    26   -6.970526429564e-04
    27    1.251494160846e-05
    28    8.107726219423e-15
    29    8.697996536721e-06
    30   -2.359838382274e-05
    31   -8.065344134771e-05
    32   -6.568651535525e-14
    33   -4.995758478704e-05
    34   -2.249982752465e-04
    35    3.383595626079e-05
    36    1.341210632453e-16
    37    1.087087999911e-04
    38    2.661889862538e-16
    39   -7.843479982888e-04
    40   -6.072139549343e-03
    41   -3.029025220012e-02
    42   -1.039974391477e-01
    43   -2.456778132085e-01
    44   -8.975495068385e-02
    45   -3.289033051120e-01
    46    3.917348637520e-05
    47    7.527179432615e-16
    48   -7.446350481698e-06
    49   -1.092012451619e-03
    50   -5.605251741764e-06
    51   -2.008417484540e-15
    52   -7.704752972453e-05
    53   -9.245267793344e-04
    54   -3.213353299252e-04
    55    3.552130660517e-15
    56   -9.296331040710e-05
    57    9.660682422969e-04
    58    2.139929528387e-04
    59   -1.556433080324e-14
    60   -6.326356808974e-05
    61    6.127758617444e-05
    62    1.386120503899e-04
    63    1.313529640894e-13
    64    4.126314740034e-05
    65   -1.241040466239e-04
    66    2.366199358321e-05
    67   -6.961509114457e-16
    68   -6.899730400935e-05
    69    5.158722601189e-16
    70   -2.775283676425e-04
    71   -3.154491527776e-04
    72   -9.219626491904e-06
    73    1.097612414162e-04
    74   -1.990931864919e-04
    75   -1.484088572732e-16
    76   -1.257126421449e-04
    77   -8.238424028991e-12
    78   -6.377872879939e-11
    79   -3.181556267435e-10
    80   -1.092279289322e-09
    81   -2.580394543200e-09
    82   -9.363729240259e-10
    83   -3.452160735539e-09
    84    1.407805211585e-04
    85    5.076016224666e-16
    86   -2.201312631120e-12
    87   -4.441369503185e-11
    88    7.743725178810e-04
    89   -3.599972851170e-16
    90   -2.719387083558e-11
    91   -1.768395834493e-11
    92   -3.974538732125e-04
    93   -4.339802718310e-16
    94   -8.417949432701e-12
    95   -2.743202671150e-10
    96    5.024445827522e-04
    97    1.561741224013e-14
    98   -5.383280874804e-11
    99   -1.525706910051e-11
   100   -1.405690971084e-04
   101   -1.345314595903e-13
   102    1.432695956904e-12
   103    8.292413945405e-12
   104    4.409228482026e-04
   105    2.216788117949e-16
   106   -7.802522366084e-12
   107    6.380507879129e-16
   108   -5.117896078372e-12
   109   -1.506980942093e-11
   110    1.043180108545e-11
   111   -1.385249691880e-11
   112    6.613554597358e-05
   113    5.501742075554e-16
   114   -8.553007731512e-12
   115    7.843479300324e-04
   116    6.072139020928e-03
   117    3.029024956419e-02
   118    1.039974300976e-01
   119    2.456777918299e-01
   120    8.975494288773e-02
   121    3.289032764911e-01
   122    3.917348125801e-05
   123   -2.499697965496e-15
   124    7.446340092059e-06
   125    1.092012292473e-03
   126   -5.605221116683e-06
   127    1.283389801564e-15
   128    7.704748690076e-05
   129    9.245268197711e-04
   130   -3.213353678172e-04
   131   -7.875032477218e-16
   132    9.296333808937e-05
   133   -9.660681573409e-04
   134    2.139928048823e-04
   135   -8.388875713164e-15
   136    6.326355809273e-05
   137   -6.127757104459e-05
   138    1.386120498257e-04
   139    1.048316620905e-13
   140   -4.126315933554e-05
   141    1.241040204842e-04
   142    2.366198001024e-05
   143   -1.092249990776e-15
   144    6.899730490405e-05
   145   -3.069653594307e-16
   146    2.775283387649e-04
   147    3.154491140822e-04
   148    9.219678290889e-06
   149   -1.097611668684e-04
   150   -1.990931612720e-04
   151    5.153537611646e-16
   152    1.257126256871e-04
   153    4.291255177199e-06
   154    3.313762684044e-05
   155    1.658240842605e-04
   156    5.667624552614e-04
   157    1.357248099712e-03
   158    4.956167418085e-04
   159    1.726267695225e-03
   160   -1.331213981262e-05
   161    1.792321346223e-16
   162   -8.390224877683e-05
   163    2.149497194364e-04
   164    7.363907788345e-05
   165    1.862908117739e-16
   166   -4.417292635938e-04
   167   -7.743126350458e-05
   168   -1.284795412134e-05
   169    1.492024658513e-15
   170    2.768577341974e-04
   171    6.970528927305e-04
   172    1.251490097650e-05
   173    4.972189769124e-16
   174   -8.698120060191e-06
   175    2.359841642773e-05
   176   -8.065345425146e-05
   177   -4.037878278368e-14
   178    4.995764230868e-05
   179    2.249982472724e-04
   180    3.383596388741e-05
   181   -2.082970674016e-16
   182   -1.087088005483e-04
   183   -8.580367056668e-16
   184    1.628859326214e-05
   185    3.714022281064e-05
   186   -1.017317922453e-04
   187   -1.013090192324e-04
   188   -1.725203610600e-05
   189   -4.892345377951e-16
   190   -5.048050184974e-05
   191    1.014657498913e-12
   192    7.855445708945e-12
   193    3.920247464435e-11
   194    1.345972886129e-10
   195    3.186289110346e-10
   196    1.277491295117e-10
   197    4.274225688981e-10
   198   -3.278779057885e-05
   199    4.133314824401e-16
   200    5.718566129896e-12
   201   -5.291680169546e-11
   202    2.280688209398e-04
   203    7.426598719963e-16
   204    2.213057064906e-11
   205    7.364686180862e-11