[Molden Format]
[Atoms] (Angs)
  H      1    1     -2.14003202      0.00000000      0.38146042
  C      2    6     -1.21205832      0.00000000     -0.17180643
  C      3    6     -1.20429565      0.00000000     -1.56369320
  H      4    1     -2.14371879      0.00000000     -2.09923439
  C      5    6     -0.00000000      0.00000000     -2.26269040
  H      6    1     -0.00000000      0.00000000     -3.34354440
  C      7    6      1.20429565      0.00000000     -1.56369320
  H      8    1      2.14371879      0.00000000     -2.09923439
  C      9    6      1.21205832     -0.00000000     -0.17180643
  H     10    1      2.14003202     -0.00000000      0.38146042
  C     11    6      0.00000000     -0.00000000      0.51110416
 Cl     12   17      0.00000000     -0.00000000      2.24203561
[GTO]
1    0
S    3    1.000000
   3.38650000E+01    2.54938000E-02 
   5.09479000E+00    1.90373000E-01 
   1.15879000E+00    8.52161000E-01 
S    1    1.000000
   3.25840000E-01    1.00000000E+00 
S    1    1.000000
   1.02741000E-01    1.00000000E+00 
S    1    1.000000
   3.60000000E-02    1.00000000E+00 
P    1    1.000000
   7.50000000E-01    1.00000000E+00 

2    0
S    1    1.000000
   4.56324000E+03    1.96665000E-03 
S    1    1.000000
   6.82024000E+02    1.52306000E-02 
S    1    1.000000
   1.54973000E+02    7.61269000E-02 
S    1    1.000000
   4.44553000E+01    2.60801000E-01 
S    1    1.000000
   1.30290000E+01    6.16462000E-01 
S    1    1.000000
   1.82773000E+00    2.21006000E-01 
SP   3    1.000000
   2.09642000E+01    1.14660000E-01   4.02487000E-02 
   4.80331000E+00    9.19999000E-01   2.37594000E-01 
   1.45933000E+00   -3.03068000E-03   8.15854000E-01 
SP   1    1.000000
   4.83456000E-01    1.00000000E+00   1.00000000E+00 
SP   1    1.000000
   1.45585000E-01    1.00000000E+00   1.00000000E+00 
SP   1    1.000000
   4.38000000E-02    1.00000000E+00   1.00000000E+00 
SP   1    1.000000
   1.31927711E-02    1.00000000E+00   1.00000000E+00 
D    1    1.000000
   6.26000000E-01    1.00000000E+00 

3    0
S    1    1.000000
   4.56324000E+03    1.96665000E-03 
S    1    1.000000
   6.82024000E+02    1.52306000E-02 
S    1    1.000000
   1.54973000E+02    7.61269000E-02 
S    1    1.000000
   4.44553000E+01    2.60801000E-01 
S    1    1.000000
   1.30290000E+01    6.16462000E-01 
S    1    1.000000
   1.82773000E+00    2.21006000E-01 
SP   3    1.000000
   2.09642000E+01    1.14660000E-01   4.02487000E-02 
   4.80331000E+00    9.19999000E-01   2.37594000E-01 
   1.45933000E+00   -3.03068000E-03   8.15854000E-01 
SP   1    1.000000
   4.83456000E-01    1.00000000E+00   1.00000000E+00 
SP   1    1.000000
   1.45585000E-01    1.00000000E+00   1.00000000E+00 
SP   1    1.000000
   4.38000000E-02    1.00000000E+00   1.00000000E+00 
SP   1    1.000000
   1.31927711E-02    1.00000000E+00   1.00000000E+00 
D    1    1.000000
   6.26000000E-01    1.00000000E+00 

4    0
S    3    1.000000
   3.38650000E+01    2.54938000E-02 
   5.09479000E+00    1.90373000E-01 
   1.15879000E+00    8.52161000E-01 
S    1    1.000000
   3.25840000E-01    1.00000000E+00 
S    1    1.000000
   1.02741000E-01    1.00000000E+00 
S    1    1.000000
   3.60000000E-02    1.00000000E+00 
P    1    1.000000
   7.50000000E-01    1.00000000E+00 

5    0
S    1    1.000000
   4.56324000E+03    1.96665000E-03 
S    1    1.000000
   6.82024000E+02    1.52306000E-02 
S    1    1.000000
   1.54973000E+02    7.61269000E-02 
S    1    1.000000
   4.44553000E+01    2.60801000E-01 
S    1    1.000000
   1.30290000E+01    6.16462000E-01 
S    1    1.000000
   1.82773000E+00    2.21006000E-01 
SP   3    1.000000
   2.09642000E+01    1.14660000E-01   4.02487000E-02 
   4.80331000E+00    9.19999000E-01   2.37594000E-01 
   1.45933000E+00   -3.03068000E-03   8.15854000E-01 
SP   1    1.000000
   4.83456000E-01    1.00000000E+00   1.00000000E+00 
SP   1    1.000000
   1.45585000E-01    1.00000000E+00   1.00000000E+00 
SP   1    1.000000
   4.38000000E-02    1.00000000E+00   1.00000000E+00 
SP   1    1.000000
   1.31927711E-02    1.00000000E+00   1.00000000E+00 
D    1    1.000000
   6.26000000E-01    1.00000000E+00 

6    0
S    3    1.000000
   3.38650000E+01    2.54938000E-02 
   5.09479000E+00    1.90373000E-01 
   1.15879000E+00    8.52161000E-01 
S    1    1.000000
   3.25840000E-01    1.00000000E+00 
S    1    1.000000
   1.02741000E-01    1.00000000E+00 
S    1    1.000000
   3.60000000E-02    1.00000000E+00 
P    1    1.000000
   7.50000000E-01    1.00000000E+00 

7    0
S    1    1.000000
   4.56324000E+03    1.96665000E-03 
S    1    1.000000
   6.82024000E+02    1.52306000E-02 
S    1    1.000000
   1.54973000E+02    7.61269000E-02 
S    1    1.000000
   4.44553000E+01    2.60801000E-01 
S    1    1.000000
   1.30290000E+01    6.16462000E-01 
S    1    1.000000
   1.82773000E+00    2.21006000E-01 
SP   3    1.000000
   2.09642000E+01    1.14660000E-01   4.02487000E-02 
   4.80331000E+00    9.19999000E-01   2.37594000E-01 
   1.45933000E+00   -3.03068000E-03   8.15854000E-01 
SP   1    1.000000
   4.83456000E-01    1.00000000E+00   1.00000000E+00 
SP   1    1.000000
   1.45585000E-01    1.00000000E+00   1.00000000E+00 
SP   1    1.000000
   4.38000000E-02    1.00000000E+00   1.00000000E+00 
SP   1    1.000000
   1.31927711E-02    1.00000000E+00   1.00000000E+00 
D    1    1.000000
   6.26000000E-01    1.00000000E+00 

8    0
S    3    1.000000
   3.38650000E+01    2.54938000E-02 
   5.09479000E+00    1.90373000E-01 
   1.15879000E+00    8.52161000E-01 
S    1    1.000000
   3.25840000E-01    1.00000000E+00 
S    1    1.000000
   1.02741000E-01    1.00000000E+00 
S    1    1.000000
   3.60000000E-02    1.00000000E+00 
P    1    1.000000
   7.50000000E-01    1.00000000E+00 

9    0
S    1    1.000000
   4.56324000E+03    1.96665000E-03 
S    1    1.000000
   6.82024000E+02    1.52306000E-02 
S    1    1.000000
   1.54973000E+02    7.61269000E-02 
S    1    1.000000
   4.44553000E+01    2.60801000E-01 
S    1    1.000000
   1.30290000E+01    6.16462000E-01 
S    1    1.000000
   1.82773000E+00    2.21006000E-01 
SP   3    1.000000
   2.09642000E+01    1.14660000E-01   4.02487000E-02 
   4.80331000E+00    9.19999000E-01   2.37594000E-01 
   1.45933000E+00   -3.03068000E-03   8.15854000E-01 
SP   1    1.000000
   4.83456000E-01    1.00000000E+00   1.00000000E+00 
SP   1    1.000000
   1.45585000E-01    1.00000000E+00   1.00000000E+00 
SP   1    1.000000
   4.38000000E-02    1.00000000E+00   1.00000000E+00 
SP   1    1.000000
   1.31927711E-02    1.00000000E+00   1.00000000E+00 
D    1    1.000000
   6.26000000E-01    1.00000000E+00 

10    0
S    3    1.000000
   3.38650000E+01    2.54938000E-02 
   5.09479000E+00    1.90373000E-01 
   1.15879000E+00    8.52161000E-01 
S    1    1.000000
   3.25840000E-01    1.00000000E+00 
S    1    1.000000
   1.02741000E-01    1.00000000E+00 
S    1    1.000000
   3.60000000E-02    1.00000000E+00 
P    1    1.000000
   7.50000000E-01    1.00000000E+00 

11    0
S    1    1.000000
   4.56324000E+03    1.96665000E-03 
S    1    1.000000
   6.82024000E+02    1.52306000E-02 
S    1    1.000000
   1.54973000E+02    7.61269000E-02 
S    1    1.000000
   4.44553000E+01    2.60801000E-01 
S    1    1.000000
   1.30290000E+01    6.16462000E-01 
S    1    1.000000
   1.82773000E+00    2.21006000E-01 
SP   3    1.000000
   2.09642000E+01    1.14660000E-01   4.02487000E-02 
   4.80331000E+00    9.19999000E-01   2.37594000E-01 
   1.45933000E+00   -3.03068000E-03   8.15854000E-01 
SP   1    1.000000
   4.83456000E-01    1.00000000E+00   1.00000000E+00 
SP   1    1.000000
   1.45585000E-01    1.00000000E+00   1.00000000E+00 
SP   1    1.000000
   4.38000000E-02    1.00000000E+00   1.00000000E+00 
SP   1    1.000000
   1.31927711E-02    1.00000000E+00   1.00000000E+00 
D    1    1.000000
   6.26000000E-01    1.00000000E+00 

12    0
S    6    1.000000
   1.05819000E+05    7.38000000E-04 
   1.58720000E+04    5.71800000E-03 
   3.61965000E+03    2.94950000E-02 
   1.03080000E+03    1.17286000E-01 
   3.39908000E+02    3.62949000E-01 
   1.24538000E+02    5.84149000E-01 
S    3    1.000000
   1.24538000E+02    1.34177000E-01 
   4.95135000E+01    6.24250000E-01 
   2.08056000E+01    2.91756000E-01 
S    1    1.000000
   6.58346000E+00    1.00000000E+00 
S    1    1.000000
   2.56468000E+00    1.00000000E+00 
S    1    1.000000
   5.59763000E-01    1.00000000E+00 
S    1    1.000000
   1.83273000E-01    1.00000000E+00 
P    5    1.000000
   5.89776000E+02    2.39100000E-03 
   1.39849000E+02    1.85040000E-02 
   4.51413000E+01    8.13770000E-02 
   1.68733000E+01    2.21552000E-01 
   6.74110000E+00    7.72569000E-01 
P    2    1.000000
   6.74110000E+00   -1.57224400E+00 
   2.77152000E+00    9.92389000E-01 
P    1    1.000000
   1.02387000E+00    1.00000000E+00 
P    1    1.000000
   3.81368000E-01    1.00000000E+00 
P    1    1.000000
   1.09437000E-01    1.00000000E+00 
SP   1    1.000000
   4.83000000E-02    1.00000000E+00   1.00000000E+00 
SP   1    1.000000
   1.45481928E-02    1.00000000E+00   1.00000000E+00 
D    1    1.000000
   7.50000000E-01    1.00000000E+00 

[MO]
Sym=X
Ene= -0.178522
Spin=Alpha
Occup=1
     1    2.716231919535e-04
     2    2.907971595721e-04
     3    6.386261587519e-05
     4    1.679643314969e-05
     5    1.849099678178e-04
     6    2.228146940353e-17
     7   -1.342659229788e-04
     8    7.723857348576e-04
     9    5.979517290343e-03
    10    2.982829250444e-02
    11    1.024110634984e-01
    12    2.419342497778e-01
    13    8.841488409374e-02
    14    3.238598044414e-01
    15    8.735022238601e-05
    16    1.669502545875e-15
    17    6.240275082486e-05
    18    1.122112827188e-03
    19   -1.200503011692e-04
    20   -1.955493794123e-15
    21   -2.320645973420e-04
    22    1.021206653664e-03
    23    4.648345366452e-04
    24    2.383978653012e-15
    25    8.207361324008e-05
    26   -8.472049764940e-04
    27   -1.813655223488e-05
    28   -1.382440863218e-14
    29   -1.407017223607e-04
    30   -1.091918039906e-05
    31    2.842019133752e-05
    32    2.159905406776e-14
    33    9.158459303881e-05
    34    1.829851946396e-04
    35   -1.552945933383e-05
    36   -1.924160387726e-16
    37    2.695095671245e-05
    38   -4.021284026451e-16
    39    1.362039661338e-04
    40    1.054354393959e-03
    41    5.260090719294e-03
    42    1.805713319681e-02
    43    4.267682362499e-02
    44    1.560034063883e-02
    45    5.703915211090e-02
    46    2.126184661642e-06
    47    4.251266975951e-16
    48    8.845985225698e-05
    49    3.717888890014e-04
    50   -6.127698715672e-05
    51    7.094248356786e-16
    52    4.039027612007e-04
    53    7.287622765069e-05
    54   -7.146622653364e-06
    55   -1.267362254374e-15
    56   -1.873950299509e-04
    57   -5.087591640382e-04
    58   -3.032799471909e-04
    59    1.439851552595e-14
    60    2.378677057543e-04
    61   -4.558082782315e-05
    62   -6.711556724461e-05
    63   -3.750718267431e-14
    64   -7.699101967921e-05
    65    2.254156842375e-04
    66    2.388756374427e-05
    67    7.591525072765e-17
    68   -9.231282644183e-05
    69   -2.548783556468e-16
    70    6.411331101920e-05
    71    8.364947941522e-05
    72   -9.831728917700e-05
    73   -1.281047324833e-04
    74    5.359244591354e-05
    75    1.888304547532e-16
    76    6.864840795598e-05
    77    1.285879927313e-11
    78    9.954680756522e-11
    79    4.965840828203e-10
    80    1.704860161081e-09
    81    4.027495848134e-09
    82    1.460926085496e-09
    83    5.388319524943e-09
    84    5.716338879157e-06
    85   -1.600357013727e-16
    86    3.337738717414e-12
    87    7.105971658621e-11
    88   -3.332138798166e-04
    89   -7.578779034134e-16
    90    4.441270464837e-11
    91    3.551772594122e-11
    92    2.438124004553e-04
    93    3.909951381454e-16
    94    1.851964071967e-11
    95    4.715155811321e-10
    96   -4.552093922746e-04
    97   -1.009468477555e-14
    98    9.542393243270e-11
    99    2.443249498034e-11
   100    6.004518615025e-05
   101    1.184280332617e-14
   102   -1.560234379134e-12
   103   -1.327889208591e-11
   104   -1.988026744886e-04
   105   -1.131002053453e-16
   106    1.248120534603e-11
   107    5.409278569073e-17
   108    8.073376240574e-12
   109    2.502398758598e-11
   110   -1.540640693005e-11
   111    2.603857094528e-11
   112   -3.247471296928e-05
   113   -6.277069808898e-17
   114    1.376743375380e-11
   115   -1.362038574092e-04
   116   -1.054353552248e-03
   117   -5.260086520533e-03
   118   -1.805711878095e-02
   119   -4.267678957125e-02
   120   -1.560032822135e-02
   121   -5.703910652123e-02
   122    2.126192843635e-06
   123    1.310897162183e-15
   124   -8.845983459816e-05
   125   -3.717886303641e-04
   126   -6.127703570628e-05
   127    8.475108773754e-16
   128   -4.039026870325e-04
   129   -7.287631301710e-05
   130   -7.146552132706e-06
   131    1.738241081164e-15
   132    1.873949768249e-04
   133    5.087590132107e-04
   134   -3.032796929047e-04
   135    5.973760746326e-15
   136   -2.378676894314e-04
   137    4.558079913761e-05
   138   -6.711556536589e-05
   139    1.467721612089e-14
   140    7.699103661927e-05
   141   -2.254156396025e-04
   142    2.388758523624e-05
   143    2.901997882018e-16
   144    9.231282341086e-05
   145   -9.570390108469e-18
   146   -6.411326459934e-05
   147   -8.364941801368e-05
   148    9.831720028192e-05
   149    1.281046050797e-04
   150    5.359240540187e-05
   151    5.991511981159e-17
   152   -6.864838104353e-05
   153   -7.723855839254e-04
   154   -5.979516121876e-03
   155   -2.982828667575e-02
   156   -1.024110434861e-01
   157   -2.419342025054e-01
   158   -8.841486684469e-02
   159   -3.238597411479e-01
   160    8.735021465531e-05
   161   -5.622677532722e-16
   162   -6.240274915065e-05
   163   -1.122112524042e-03
   164   -1.200503376074e-04
   165    1.140737006384e-15
   166    2.320645149464e-04
   167   -1.021206446385e-03
   168    4.648344378235e-04
   169   -1.946486771609e-15
   170   -8.207365759974e-05
   171    8.472045450457e-04
   172   -1.813647998555e-05
   173   -2.436382509986e-15
   174    1.407019343006e-04
   175    1.091912358073e-05
   176    2.842021349128e-05
   177   -3.181250216119e-14
   178   -9.158468338258e-05
   179   -1.829851493753e-04
   180   -1.552947245421e-05
   181   -4.497932538647e-16
   182   -2.695095447744e-05
   183    1.240232852344e-15
   184   -2.716231347140e-04
   185   -2.907970605713e-04
   186   -6.386264649999e-05
   187   -1.679651255469e-05
   188    1.849099189455e-04
   189    2.771018088582e-16
   190    1.342658897913e-04
   191   -1.734213684421e-12
   192   -1.342064396256e-11
   193   -6.697511266227e-11
   194   -2.299609343350e-10
   195   -5.442875644525e-10
   196   -2.177671448281e-10
   197   -7.304667016991e-10
   198   -1.280761868596e-04
   199   -2.613042388282e-16
   200   -9.881612490727e-12
   201    8.939079058520e-11
   202   -9.440754476676e-04
   203   -2.524226458967e-15
   204   -3.709840552286e-11
   205   -1.294077638274e-10
   206    7.063386174310e-04
   207    9.803335368125e-16
   208    7.508525717865e-11
   209    1.605186259102e-10
   210   -5.028783647920e-04
   211    3.206000401743e-15
   212   -3.173418758562e-10
   213   -2.296479823885e-12
   214   -4.986342282159e-05
   215    3.051315009066e-14
   216    7.252129844670e-11
   217   -1.424358011232e-11
   218    4.613106565666e-04
   219    1.912620959560e-16
   220    1.546742786616e-11
   221    4.548047425317e-16
   222    1.225986789619e-13
   223    1.052660809990e-13
   224    1.311459551852e-12
   225   -4.165480842703e-12
   226    7.287956915220e-12
   227   -2.525174916762e-11
   228   -1.724136848315e-05
   229    6.306989258694e-15
   230   -2.727268297205e-13
   231   -9.501202758180e-06
   232    2.568188812571e-15
   233    2.749775486962e-13
   234    3.485224014226e-05
   235   -8.631197790220e-16
   236    1.311884922077e-12
   237   -5.772044921336e-05
   238   -8.169623018143e-16
   239   -2.597496184612e-12
   240   -9.230370959401e-06
   241    4.920021921769e-17
   242    1.667061380321e-11
   243    2.116820210576e-10
   244    2.891144195871e-05
   245    4.788164900493e-16
   246   -4.903615830599e-11
   247    8.258740037398e-11
   248    3.090900672298e-05
   249   -1.270019789953e-14
   250   -3.433714765734e-11
   251    2.829522073292e-12
   252    2.760436351179e-05
   253    4.484919601468e-16
   254   -2.709048725008e-13
   255   -1.729881624615e-16
Sym=X
Ene= -0.574692
Spin=Alpha
Occup=1
     1    2.700974903956e-04
     2    4.653260862229e-04
     3    1.001247581551e-04
     4   -2.812628220001e-04
     5    2.289879973099e-04
     6   -1.380486775982e-16
     7   -1.144114907512e-04
     8    7.713960005365e-04
     9    5.971923688113e-03
    10    2.978994086336e-02
    11    1.022813298243e-01
    12    2.416098378663e-01
    13    8.823555344028e-02
    14    3.234973783454e-01
    15    5.023851099881e-05
    16    8.179910880482e-16
    17    7.834654398752e-05
    18    1.194823521262e-03
    19    2.030436193202e-04
    20   -2.070916092251e-15
    21    4.926413360009e-05
    22    1.888115554362e-03
    23    7.887643187986e-04
    24   -1.325993880302e-15
    25   -6.777444312333e-04
    26   -1.627939365466e-03
    27   -1.739465777500e-05
    28   -2.841143968019e-14
    29    9.020425852143e-04
    30   -2.098455946284e-04
    31   -1.132534360748e-04
    32    5.713728528499e-13
    33   -2.451530134369e-04
    34    3.321217100526e-06
    35    9.803450192645e-05
    36    5.037189745369e-16
    37    1.232354752620e-04
    38   -2.171703499070e-16
    39   -1.284363697085e-04
    40   -9.943319670369e-04
    41   -4.960034203267e-03
    42   -1.703047690543e-02
    43   -4.022896293217e-02
    44   -1.475519564230e-02
    45   -5.389308116837e-02
    46    1.254302321576e-05
    47   -6.239517457556e-16
    48    7.557744475459e-05
    49    1.962713465850e-04
    50   -3.644495533765e-05
    51   -1.163183252109e-15
    52    4.580766752167e-04
    53   -1.627671784665e-03
    54   -7.072829506136e-04
    55   -2.500845416226e-15
    56   -6.858823262594e-04
    57   -8.831105918799e-05
    58   -9.781044217202e-04
    59    1.852131904737e-14
    60    2.777070583042e-04
    61   -1.054400541282e-04
    62    2.698385964272e-05
    63   -4.598683481683e-13
    64    3.400101537151e-05
    65    2.221720159374e-04
    66    1.988035380684e-05
    67   -1.223666893090e-16
    68   -1.390881367427e-04
    69   -2.789089768485e-16
    70   -1.476279669638e-05
    71   -6.063052647792e-05
    72   -4.084835346190e-04
    73   -3.970017087465e-04
    74   -8.348168212006e-06
    75   -8.959917857407e-16
    76    3.618100900407e-05
    77   -2.825447196265e-06
    78   -2.180293289756e-05
    79   -1.092404903704e-04
    80   -3.730519982433e-04
    81   -8.996483102301e-04
    82   -3.868541267108e-04
    83   -1.128090008903e-03
    84    4.391692542762e-12
    85   -6.134761678714e-16
    86   -4.327449482887e-05
    87    3.662457423392e-05
    88    5.225753441017e-11
    89   -1.850789572642e-15
    90    1.144373044927e-04
    91    1.071628334690e-03
    92   -3.235653920462e-11
    93   -3.183330246062e-15
    94    7.205953889407e-04
    95    3.346866030047e-03
    96    4.739728355302e-11
    97   -1.885331610715e-14
    98    7.539079847261e-04
    99    1.343165338655e-04
   100   -9.391909413521e-12
   101    4.501156077204e-13
   102    1.409079178077e-05
   103    1.704840116643e-05
   104    3.044565202059e-11
   105   -2.016872110044e-17
   106   -9.317380218985e-06
   107   -1.621500647814e-16
   108   -4.180818955186e-06
   109    1.403964252018e-04
   110    1.445810759707e-04
   111    2.847261442415e-04
   112    4.772487482638e-12
   113   -3.046524539378e-16
   114    1.680977308795e-05
   115   -1.284362948543e-04
   116   -9.943313875556e-04
   117   -4.960031312485e-03
   118   -1.703046698077e-02
   119   -4.022893948365e-02
   120   -1.475518707434e-02
   121   -5.389304979106e-02
   122   -1.254302086208e-05
   123   -8.783989175085e-16
   124    7.557745889349e-05
   125    1.962714788925e-04
   126    3.644496441686e-05
   127   -1.113798308264e-15
   128    4.580767426315e-04
   129   -1.627671710256e-03
   130    7.072829294214e-04
   131   -4.192703484138e-15
   132   -6.858823483562e-04
   133   -8.831119038429e-05
   134    9.781044717412e-04
   135    2.363722783425e-14
   136    2.777070943143e-04
   137   -1.054400644155e-04
   138   -2.698384057311e-05
   139   -4.837156243090e-13
   140    3.400100046981e-05
   141    2.221720591601e-04
   142   -1.988035586020e-05
   143    1.966645397967e-16
   144   -1.390881462203e-04
   145    2.879597752689e-16
   146   -1.476276775895e-05
   147   -6.063049189193e-05
   148   -4.084835484928e-04
   149   -3.970017329974e-04
   150    8.348146275664e-06
   151   -4.126933607397e-16
   152    3.618102820718e-05
   153    7.713961197544e-04
   154    5.971924611049e-03
   155    2.978994546738e-02
   156    1.022813456313e-01
   157    2.416098752098e-01
   158    8.823556708748e-02
   159    3.234974283283e-01
   160   -5.023852535469e-05
   161    4.689865303878e-16
   162    7.834654783814e-05
   163    1.194823708746e-03
   164   -2.030435957960e-04
   165   -1.901661824637e-15
   166    4.926406751194e-05
   167    1.888115706670e-03
   168   -7.887643910874e-04
   169    7.645166131348e-16
   170   -6.777443993334e-04
   171   -1.627939496979e-03
   172    1.739467771039e-05
   173   -3.365678672186e-14
   174    9.020425505257e-04
   175   -2.098455960465e-04
   176    1.132534270165e-04
   177    5.948298320666e-13
   178   -2.451529959329e-04
   179    3.321260753498e-06
   180   -9.803449720546e-05
   181    5.941249416364e-17
   182    1.232354719510e-04
   183    2.726972319483e-16
   184    2.700975333386e-04
   185    4.653261334549e-04
   186    1.001247607479e-04
   187   -2.812628286977e-04
   188   -2.289880269520e-04
   189   -6.978407200980e-17
   190   -1.144115148844e-04
   191    8.572002414091e-05
   192    6.635746691085e-04
   193    3.310294626202e-03
   194    1.136391512511e-02
   195    2.684865833593e-02
   196    9.654164527521e-03
   197    3.588423993237e-02
   198    8.734188842719e-12
   199    7.481063830256e-17
   200    1.147867480204e-06
   201    8.962177849236e-04
   202    8.052108159975e-11
   203   -9.723855267174e-16
   204   -3.329819237165e-04
   205   -1.522037580192e-03
   206   -6.342034734765e-11
   207   -2.663625598108e-15
   208    9.820981440412e-04
   209    3.877425677742e-04
   210    4.656853454830e-11
   211    3.606373217891e-14
   212   -1.745972666394e-03
   213   -8.881861946414e-05
   214    6.480947596906e-12
   215   -7.169683726767e-13
   216    2.901519909047e-04
   217   -1.524379172022e-04
   218   -3.982936105876e-11
   219    2.172560586268e-16
   220    1.722824580770e-04
   221    2.423270907777e-17
   222   -5.156447981161e-07
   223   -3.431341663610e-06
   224    1.873142244777e-05
   225   -3.202224845716e-05
   226    5.467182609086e-05
   227   -2.380648741102e-04
   228    1.470006172915e-12
   229   -1.462536885739e-15
   230    5.333562325113e-06
   231    8.541921679746e-13
   232   -1.413831058160e-15
   233    6.941298863546e-06
   234   -3.100825119273e-12
   235    8.778464195887e-16
   236    5.911556613838e-06
   237    5.580832876093e-12
   238    4.888145241647e-16
   239   -3.845071708689e-05
   240    4.498086878533e-14
   241   -3.325871102287e-15
   242    1.588735449676e-04
   243    1.045021330981e-03
   244   -1.246150128948e-12
   245    1.123636046761e-15
   246   -2.665239822580e-04
   247    7.447509391809e-04
   248   -3.100969814370e-12
   249    5.680950839332e-14
   250   -2.228737759400e-04
   251    4.838893331566e-05
   252   -2.394734173375e-12
   253   -1.094909893125e-16
   254   -2.871308040578e-07
   255    7.660538880908e-17
Sym=X
Ene= 0.574692
Spin=Alpha
Occup=0
     1    4.098154029640e-15
     2   -1.802731887465e-13
     3    1.326006510559e-12
     4    1.762777963582e-11
     5   -5.661966186948e-15
     6    8.233945650178e-03
     7    1.700915906876e-14
     8   -1.909813813622e-16
     9   -8.836910626577e-16
    10    1.825118117998e-15
    11   -4.427295758122e-15
    12    8.995156928757e-15
    13    2.989775991630e-14
    14   -1.573934840046e-14
    15    1.260367007319e-14
    16    7.127105905765e-02
    17    1.602764040719e-14
    18   -1.355333106088e-13
    19    1.737331264454e-14
    20    1.124808714727e-01
    21    6.353163021955e-14
    22   -1.142700850690e-14
    23   -3.105643500179e-13
    24    2.324015051134e-01
    25   -7.730263003135e-14
    26   -5.694305161785e-11
    27    1.867189672740e-12
    28    2.205893036463e-01
    29   -1.462393029359e-11
    30    1.653241304805e-11
    31    3.430617634384e-11
    32    5.801628543639e-02
    33    2.139350489288e-11
    34   -1.553380438122e-14
    35   -3.543035525257e-14
    36   -3.335655519282e-02
    37   -7.620759742708e-15
    38   -2.677078206361e-02
    39    2.113304003120e-16
    40   -3.195914406634e-16
    41    1.523398429397e-15
    42   -1.367411627843e-15
    43    1.489570607261e-14
    44    1.820663210991e-14
    45   -6.042349324171e-15
    46    1.424182155113e-14
    47    7.490790441360e-02
    48   -1.226521587051e-14
    49   -2.903419370069e-14
    50   -1.957255251583e-14
    51    1.216087523564e-01
    52   -6.485769571715e-15
    53   -5.220474146639e-13
    54    6.157337760179e-13
    55    2.018318882507e-01
    56    8.375978977571e-14
    57    4.021496460797e-11
    58    2.493662135506e-11
    59    1.580214668355e-01
    60    1.430943426115e-11
    61    1.420227287577e-11
    62   -1.619671509986e-11
    63    2.240108431302e-02
    64    2.236100461506e-12
    65   -1.766800035423e-14
    66   -5.813102094631e-15
    67    3.074772727544e-02
    68    1.497650441993e-14
    69   -2.379843282434e-02
    70    1.744836078717e-14
    71   -1.108088635613e-13
    72    2.669044196935e-12
    73    3.442325321311e-11
    74   -1.100665818623e-14
    75    7.984448658473e-03
    76    2.721319425835e-14
    77   -3.430722292711e-16
    78    5.708682864634e-16
    79   -1.398140530226e-15
    80   -2.452120962480e-17
    81   -3.708020198169e-15
    82   -5.933773307372e-16
    83   -8.722231835989e-15
    84   -1.712302556046e-14
    85   -1.435676352553e-01
    86   -1.030693638270e-14
    87    9.369818329818e-14
    88   -1.866428028737e-14
    89   -2.283112722613e-01
    90    4.477790507852e-14
    91   -1.301188148695e-12
    92   -8.028586832635e-13
    93   -4.328567873093e-01
    94   -8.349700162457e-13
    95    3.853076261398e-11
    96    2.770229589954e-11
    97   -3.577603362620e-01
    98   -1.669709043468e-11
    99    1.319480769863e-11
   100    1.904752412700e-11
   101   -6.312298862100e-02
   102   -1.881153622815e-11
   103    1.136806988645e-15
   104   -1.224517104120e-14
   105    6.119166859335e-03
   106   -1.257955773600e-14
   107    1.135262249353e-12
   108    2.494239366983e-14
   109    2.317427784844e-13
   110   -1.369769468011e-12
   111   -1.701977121280e-11
   112   -1.224727255359e-14
   113   -1.453924284712e-02
   114    1.661357673752e-14
   115   -2.106290571267e-17
   116   -7.455451042346e-16
   117   -6.975697328100e-16
   118   -7.445207209216e-15
   119   -1.102744300408e-14
   120   -6.008664951991e-15
   121   -4.315587379811e-14
   122    4.528771815193e-14
   123    7.490790441995e-02
   124   -3.075708501306e-14
   125    1.228842585407e-13
   126    8.974516966685e-14
   127    1.216087523667e-01
   128   -1.118060055545e-14
   129    1.454066515417e-12
   130   -1.098396079100e-12
   131    2.018318882714e-01
   132   -8.355706118096e-13
   133    2.191785623296e-11
   134    3.369604944373e-11
   135    1.580214669092e-01
   136    4.570457879821e-11
   137    1.695969251944e-11
   138   -1.366844834071e-11
   139    2.240108507729e-02
   140    2.314127952775e-11
   141   -1.065581617518e-14
   142   -1.582329667654e-14
   143    3.074772727398e-02
   144    4.095625014888e-14
   145    2.379843282450e-02
   146    4.361607227931e-14
   147   -7.994797663464e-14
   148    8.016398174153e-13
   149   -9.994220482266e-12
   150    2.997278432109e-15
   151    7.984448659681e-03
   152    2.272161594119e-14
   153   -7.076250684334e-17
   154    1.780032533585e-16
   155    3.105474394514e-15
   156    5.295475649077e-15
   157    1.985675537407e-14
   158    1.308301598036e-14
   159    3.894630865148e-14
   160   -8.041475784136e-14
   161    7.127105905066e-02
   162   -1.769093029380e-14
   163   -1.539686475786e-13
   164   -8.968359221652e-14
   165    1.124808714616e-01
   166    2.423520386801e-14
   167   -2.060613369805e-13
   168    3.775382079506e-13
   169    2.324015050907e-01
   170   -4.857812216178e-13
   171    7.954908715000e-12
   172   -3.934519359352e-11
   173    2.205893035760e-01
   174    4.119513771757e-11
   175    1.651787670991e-11
   176   -2.189794630175e-12
   177    5.801628471988e-02
   178   -1.861006425457e-11
   179   -5.239513651728e-15
   180    8.367730395298e-15
   181   -3.335655519419e-02
   182    2.202209570215e-14
   183    2.677078206367e-02
   184    2.772000922823e-14
   185   -1.362510739396e-13
   186    5.047080633646e-13
   187    1.809954987340e-11
   188    1.818907483608e-14
   189    8.233945649085e-03
   190    3.499656699658e-14
   191   -4.218235320012e-16
   192    1.920350503327e-15
   193    2.909236382463e-16
   194    1.451326092627e-14
   195    1.375824991589e-14
   196    1.155880594711e-14
   197    7.757365699013e-14
   198    3.277972448811e-14
   199   -1.750891014726e-01
   200   -1.448382073444e-13
   201   -2.260294669098e-13
   202    4.718072785776e-14
   203   -2.852113492219e-01
   204   -2.425414846152e-13
   205   -8.370368461599e-14