[Molden Format]
[Atoms] (Angs)
  H      1    1     -2.14003202      0.00000000      0.38146042
  C      2    6     -1.21205832      0.00000000     -0.17180643
  C      3    6     -1.20429565      0.00000000     -1.56369320
  H      4    1     -2.14371879      0.00000000     -2.09923439
  C      5    6     -0.00000000      0.00000000     -2.26269040
  H      6    1     -0.00000000      0.00000000     -3.34354440
  C      7    6      1.20429565      0.00000000     -1.56369320
  H      8    1      2.14371879      0.00000000     -2.09923439
  C      9    6      1.21205832     -0.00000000     -0.17180643
  H     10    1      2.14003202     -0.00000000      0.38146042
  C     11    6      0.00000000     -0.00000000      0.51110416
 Cl     12   17      0.00000000     -0.00000000      2.24203561
[GTO]
1    0
S    3    1.000000
   3.38650000E+01    2.54938000E-02 
   5.09479000E+00    1.90373000E-01 
   1.15879000E+00    8.52161000E-01 
S    1    1.000000
   3.25840000E-01    1.00000000E+00 
S    1    1.000000
   1.02741000E-01    1.00000000E+00 
S    1    1.000000
   3.60000000E-02    1.00000000E+00 
P    1    1.000000
   7.50000000E-01    1.00000000E+00 

2    0
S    1    1.000000
   4.56324000E+03    1.96665000E-03 
S    1    1.000000
   6.82024000E+02    1.52306000E-02 
S    1    1.000000
   1.54973000E+02    7.61269000E-02 
S    1    1.000000
   4.44553000E+01    2.60801000E-01 
S    1    1.000000
   1.30290000E+01    6.16462000E-01 
S    1    1.000000
   1.82773000E+00    2.21006000E-01 
SP   3    1.000000
   2.09642000E+01    1.14660000E-01   4.02487000E-02 
   4.80331000E+00    9.19999000E-01   2.37594000E-01 
   1.45933000E+00   -3.03068000E-03   8.15854000E-01 
SP   1    1.000000
   4.83456000E-01    1.00000000E+00   1.00000000E+00 
SP   1    1.000000
   1.45585000E-01    1.00000000E+00   1.00000000E+00 
SP   1    1.000000
   4.38000000E-02    1.00000000E+00   1.00000000E+00 
SP   1    1.000000
   1.31927711E-02    1.00000000E+00   1.00000000E+00 
D    1    1.000000
   6.26000000E-01    1.00000000E+00 

3    0
S    1    1.000000
   4.56324000E+03    1.96665000E-03 
S    1    1.000000
   6.82024000E+02    1.52306000E-02 
S    1    1.000000
   1.54973000E+02    7.61269000E-02 
S    1    1.000000
   4.44553000E+01    2.60801000E-01 
S    1    1.000000
   1.30290000E+01    6.16462000E-01 
S    1    1.000000
   1.82773000E+00    2.21006000E-01 
SP   3    1.000000
   2.09642000E+01    1.14660000E-01   4.02487000E-02 
   4.80331000E+00    9.19999000E-01   2.37594000E-01 
   1.45933000E+00   -3.03068000E-03   8.15854000E-01 
SP   1    1.000000
   4.83456000E-01    1.00000000E+00   1.00000000E+00 
SP   1    1.000000
   1.45585000E-01    1.00000000E+00   1.00000000E+00 
SP   1    1.000000
   4.38000000E-02    1.00000000E+00   1.00000000E+00 
SP   1    1.000000
   1.31927711E-02    1.00000000E+00   1.00000000E+00 
D    1    1.000000
   6.26000000E-01    1.00000000E+00 

4    0
S    3    1.000000
   3.38650000E+01    2.54938000E-02 
   5.09479000E+00    1.90373000E-01 
   1.15879000E+00    8.52161000E-01 
S    1    1.000000
   3.25840000E-01    1.00000000E+00 
S    1    1.000000
   1.02741000E-01    1.00000000E+00 
S    1    1.000000
   3.60000000E-02    1.00000000E+00 
P    1    1.000000
   7.50000000E-01    1.00000000E+00 

5    0
S    1    1.000000
   4.56324000E+03    1.96665000E-03 
S    1    1.000000
   6.82024000E+02    1.52306000E-02 
S    1    1.000000
   1.54973000E+02    7.61269000E-02 
S    1    1.000000
   4.44553000E+01    2.60801000E-01 
S    1    1.000000
   1.30290000E+01    6.16462000E-01 
S    1    1.000000
   1.82773000E+00    2.21006000E-01 
SP   3    1.000000
   2.09642000E+01    1.14660000E-01   4.02487000E-02 
   4.80331000E+00    9.19999000E-01   2.37594000E-01 
   1.45933000E+00   -3.03068000E-03   8.15854000E-01 
SP   1    1.000000
   4.83456000E-01    1.00000000E+00   1.00000000E+00 
SP   1    1.000000
   1.45585000E-01    1.00000000E+00   1.00000000E+00 
SP   1    1.000000
   4.38000000E-02    1.00000000E+00   1.00000000E+00 
SP   1    1.000000
   1.31927711E-02    1.00000000E+00   1.00000000E+00 
D    1    1.000000
   6.26000000E-01    1.00000000E+00 

6    0
S    3    1.000000
   3.38650000E+01    2.54938000E-02 
   5.09479000E+00    1.90373000E-01 
   1.15879000E+00    8.52161000E-01 
S    1    1.000000
   3.25840000E-01    1.00000000E+00 
S    1    1.000000
   1.02741000E-01    1.00000000E+00 
S    1    1.000000
   3.60000000E-02    1.00000000E+00 
P    1    1.000000
   7.50000000E-01    1.00000000E+00 

7    0
S    1    1.000000
   4.56324000E+03    1.96665000E-03 
S    1    1.000000
   6.82024000E+02    1.52306000E-02 
S    1    1.000000
   1.54973000E+02    7.61269000E-02 
S    1    1.000000
   4.44553000E+01    2.60801000E-01 
S    1    1.000000
   1.30290000E+01    6.16462000E-01 
S    1    1.000000
   1.82773000E+00    2.21006000E-01 
SP   3    1.000000
   2.09642000E+01    1.14660000E-01   4.02487000E-02 
   4.80331000E+00    9.19999000E-01   2.37594000E-01 
   1.45933000E+00   -3.03068000E-03   8.15854000E-01 
SP   1    1.000000
   4.83456000E-01    1.00000000E+00   1.00000000E+00 
SP   1    1.000000
   1.45585000E-01    1.00000000E+00   1.00000000E+00 
SP   1    1.000000
   4.38000000E-02    1.00000000E+00   1.00000000E+00 
SP   1    1.000000
   1.31927711E-02    1.00000000E+00   1.00000000E+00 
D    1    1.000000
   6.26000000E-01    1.00000000E+00 

8    0
S    3    1.000000
   3.38650000E+01    2.54938000E-02 
   5.09479000E+00    1.90373000E-01 
   1.15879000E+00    8.52161000E-01 
S    1    1.000000
   3.25840000E-01    1.00000000E+00 
S    1    1.000000
   1.02741000E-01    1.00000000E+00 
S    1    1.000000
   3.60000000E-02    1.00000000E+00 
P    1    1.000000
   7.50000000E-01    1.00000000E+00 

9    0
S    1    1.000000
   4.56324000E+03    1.96665000E-03 
S    1    1.000000
   6.82024000E+02    1.52306000E-02 
S    1    1.000000
   1.54973000E+02    7.61269000E-02 
S    1    1.000000
   4.44553000E+01    2.60801000E-01 
S    1    1.000000
   1.30290000E+01    6.16462000E-01 
S    1    1.000000
   1.82773000E+00    2.21006000E-01 
SP   3    1.000000
   2.09642000E+01    1.14660000E-01   4.02487000E-02 
   4.80331000E+00    9.19999000E-01   2.37594000E-01 
   1.45933000E+00   -3.03068000E-03   8.15854000E-01 
SP   1    1.000000
   4.83456000E-01    1.00000000E+00   1.00000000E+00 
SP   1    1.000000
   1.45585000E-01    1.00000000E+00   1.00000000E+00 
SP   1    1.000000
   4.38000000E-02    1.00000000E+00   1.00000000E+00 
SP   1    1.000000
   1.31927711E-02    1.00000000E+00   1.00000000E+00 
D    1    1.000000
   6.26000000E-01    1.00000000E+00 

10    0
S    3    1.000000
   3.38650000E+01    2.54938000E-02 
   5.09479000E+00    1.90373000E-01 
   1.15879000E+00    8.52161000E-01 
S    1    1.000000
   3.25840000E-01    1.00000000E+00 
S    1    1.000000
   1.02741000E-01    1.00000000E+00 
S    1    1.000000
   3.60000000E-02    1.00000000E+00 
P    1    1.000000
   7.50000000E-01    1.00000000E+00 

11    0
S    1    1.000000
   4.56324000E+03    1.96665000E-03 
S    1    1.000000
   6.82024000E+02    1.52306000E-02 
S    1    1.000000
   1.54973000E+02    7.61269000E-02 
S    1    1.000000
   4.44553000E+01    2.60801000E-01 
S    1    1.000000
   1.30290000E+01    6.16462000E-01 
S    1    1.000000
   1.82773000E+00    2.21006000E-01 
SP   3    1.000000
   2.09642000E+01    1.14660000E-01   4.02487000E-02 
   4.80331000E+00    9.19999000E-01   2.37594000E-01 
   1.45933000E+00   -3.03068000E-03   8.15854000E-01 
SP   1    1.000000
   4.83456000E-01    1.00000000E+00   1.00000000E+00 
SP   1    1.000000
   1.45585000E-01    1.00000000E+00   1.00000000E+00 
SP   1    1.000000
   4.38000000E-02    1.00000000E+00   1.00000000E+00 
SP   1    1.000000
   1.31927711E-02    1.00000000E+00   1.00000000E+00 
D    1    1.000000
   6.26000000E-01    1.00000000E+00 

12    0
S    6    1.000000
   1.05819000E+05    7.38000000E-04 
   1.58720000E+04    5.71800000E-03 
   3.61965000E+03    2.94950000E-02 
   1.03080000E+03    1.17286000E-01 
   3.39908000E+02    3.62949000E-01 
   1.24538000E+02    5.84149000E-01 
S    3    1.000000
   1.24538000E+02    1.34177000E-01 
   4.95135000E+01    6.24250000E-01 
   2.08056000E+01    2.91756000E-01 
S    1    1.000000
   6.58346000E+00    1.00000000E+00 
S    1    1.000000
   2.56468000E+00    1.00000000E+00 
S    1    1.000000
   5.59763000E-01    1.00000000E+00 
S    1    1.000000
   1.83273000E-01    1.00000000E+00 
P    5    1.000000
   5.89776000E+02    2.39100000E-03 
   1.39849000E+02    1.85040000E-02 
   4.51413000E+01    8.13770000E-02 
   1.68733000E+01    2.21552000E-01 
   6.74110000E+00    7.72569000E-01 
P    2    1.000000
   6.74110000E+00   -1.57224400E+00 
   2.77152000E+00    9.92389000E-01 
P    1    1.000000
   1.02387000E+00    1.00000000E+00 
P    1    1.000000
   3.81368000E-01    1.00000000E+00 
P    1    1.000000
   1.09437000E-01    1.00000000E+00 
SP   1    1.000000
   4.83000000E-02    1.00000000E+00   1.00000000E+00 
SP   1    1.000000
   1.45481928E-02    1.00000000E+00   1.00000000E+00 
D    1    1.000000
   7.50000000E-01    1.00000000E+00 

[MO]
Sym=X
Ene= -0.021706
Spin=Alpha
Occup=1
     1    2.207602995114e-04
     2    4.070896876329e-04
     3   -1.294987976633e-04
     4   -3.100265710084e-04
     5    1.915066783678e-04
     6    1.011155929454e-16
     7   -1.371336348060e-04
     8    5.753595307854e-04
     9    4.454279653360e-03
    10    2.221927853651e-02
    11    7.628830226720e-02
    12    1.802028050625e-01
    13    6.573629956190e-02
    14    2.412832797255e-01
    15    2.794966485463e-05
    16    6.394950348698e-16
    17    6.913381656554e-06
    18    1.210210550255e-03
    19    1.509275463304e-04
    20   -2.297802197563e-15
    21   -3.914660080028e-04
    22    8.567183036733e-04
    23    4.477023370387e-04
    24    2.135330548935e-15
    25   -1.554506022900e-04
    26   -1.774820801990e-03
    27   -3.021676152118e-04
    28   -4.540542551422e-14
    29    8.780412556040e-04
    30   -2.402087157486e-04
    31   -9.068049393575e-05
    32    5.226664505754e-13
    33   -4.487589674100e-04
    34    2.067408922595e-04
    35    4.242400251838e-05
    36    2.368336484692e-16
    37   -8.751086795296e-06
    38   -8.293051898890e-17
    39    4.732021209151e-04
    40    3.663357467580e-03
    41    1.827421182595e-02
    42    6.274164586344e-02
    43    1.482133525502e-01
    44    5.404137748583e-02
    45    1.984073850630e-01
    46   -1.306083858518e-05
    47   -8.691570455674e-16
    48    5.741202551880e-05
    49    1.176223604910e-03
    50    3.206903279627e-04
    51   -5.378797464043e-16
    52    2.008583495707e-04
    53   -4.525647211627e-04
    54   -3.976782143852e-04
    55   -3.933089545039e-15
    56   -1.864378804471e-04
    57   -6.336251592671e-04
    58   -1.081349951772e-03
    59    3.438321814299e-14
    60   -2.947338090931e-06
    61   -1.141807340238e-04
    62   -9.165009145356e-06
    63   -4.417643260817e-13
    64    1.116758500861e-04
    65    1.378694990298e-04
    66   -1.562968562164e-04
    67    5.628805076614e-17
    68    2.336136719635e-05
    69   -5.641074125928e-16
    70    2.057572133514e-04
    71    2.731597680519e-04
    72   -4.160944122681e-04
    73   -5.720876752373e-04
    74    1.901237740516e-04
    75   -3.171446682601e-16
    76    1.099500777625e-04
    77    3.461507124391e-04
    78    2.679758339021e-03
    79    1.336771951783e-02
    80    4.589558099359e-02
    81    1.084204479841e-01
    82    3.951918015930e-02
    83    1.451190244921e-01
    84    6.524864658835e-12
    85   -5.161938993549e-16
    86    1.947177724399e-05
    87    9.535596527524e-04
    88    7.491946886383e-11
    89   -1.593802145950e-15
    90    4.067793210182e-04
    91    6.229491202839e-04
    92   -4.622375181560e-11
    93   -9.587256527630e-17
    94    2.854770311752e-04
    95    3.894692248116e-03
    96    7.088805444613e-11
    97   -3.047658549537e-14
    98    8.059174536020e-04
    99    2.218185313345e-04
   100   -1.346838603885e-11
   101    4.308392089936e-13
   102   -4.921222118632e-05
   103   -1.137927779262e-04
   104    4.362201043749e-11
   105    1.606660482438e-16
   106    1.474955059199e-04
   107   -1.496918405351e-16
   108    1.534325884897e-04
   109    3.185815778019e-04
   110   -1.270739554565e-04
   111    1.998925564408e-04
   112    6.827688803386e-12
   113    3.475113297735e-17
   114    1.915059004875e-04
   115    4.732022296045e-04
   116    3.663358308997e-03
   117    1.827421602340e-02
   118    6.274166027422e-02
   119    1.482133865977e-01
   120    5.404138992650e-02
   121    1.984074306241e-01
   122    1.306084209610e-05
   123   -2.574389800681e-15
   124    5.741204520594e-05
   125    1.176223795277e-03
   126   -3.206903153912e-04
   127    7.955520733071e-16
   128    2.008584437544e-04
   129   -4.525646121664e-04
   130    3.976781830179e-04
   131   -5.704305617460e-15
   132   -1.864379108872e-04
   133   -6.336253522372e-04
   134    1.081350029837e-03
   135    3.625881896530e-14
   136   -2.947282858913e-06
   137   -1.141807490585e-04
   138    9.165036854108e-06
   139   -4.621258571309e-13
   140    1.116758292284e-04
   141    1.378695598354e-04
   142    1.562968534985e-04
   143   -1.940190500584e-16
   144    2.336135443879e-05
   145    4.046574631198e-16
   146    2.057572552160e-04
   147    2.731598179992e-04
   148   -4.160944318484e-04
   149   -5.720877112862e-04
   150   -1.901238057130e-04
   151   -3.426617860569e-16
   152    1.099501052007e-04
   153    5.753596964761e-04
   154    4.454280936068e-03
   155    2.221928493523e-02
   156    7.628832423603e-02
   157    1.802028569631e-01
   158    6.573631852896e-02
   159    2.412833491919e-01
   160   -2.794968488332e-05
   161    7.006376759299e-16
   162    6.913386501683e-06
   163    1.210210812089e-03
   164   -1.509275132047e-04
   165   -3.016645147274e-15
   166   -3.914661024584e-04
   167    8.567185146368e-04
   168   -4.477024375025e-04
   169    3.380762917109e-15
   170   -1.554505565557e-04
   171   -1.774820953495e-03
   172    3.021676328135e-04
   173   -4.703340491111e-14
   174    8.780412170562e-04
   175   -2.402087168885e-04
   176    9.068048047105e-05
   177    5.440605126260e-13
   178   -4.487589425915e-04
   179    2.067409542446e-04
   180   -4.242399576748e-05
   181    1.831392225491e-16
   182   -8.751092044270e-06
   183    8.882557960689e-17
   184    2.207603592793e-04
   185    4.070897535246e-04
   186   -1.294987946034e-04
   187   -3.100265798376e-04
   188   -1.915067196693e-04
   189   -2.975911500281e-17
   190   -1.371336686397e-04
   191   -1.171539050265e-05
   192   -9.066909383426e-05
   193   -4.526217740103e-04
   194   -1.553593949655e-03
   195   -3.683113888624e-03
   196   -1.511086548107e-03
   197   -4.926410717647e-03
   198    1.204259754976e-11
   199    3.583041114968e-16
   200   -7.114285442615e-05
   201    7.377946604930e-04
   202    1.125546317213e-10
   203   -1.303084447230e-15
   204   -3.049515034532e-04
   205   -1.170387478228e-03
   206   -8.870457054644e-11
   207   -3.698511311960e-15
   208    6.759341662709e-04
   209    1.407665161398e-03
   210    5.287132834802e-11
   211    4.748886962557e-14
   212   -2.737859589742e-03
   213   -3.305254392998e-06
   214    9.301483512452e-12
   215   -6.119175118563e-13
   216    7.474645421697e-04
   217   -1.119133606261e-04
   218   -5.572026590569e-11
   219    3.672858047736e-16
   220    1.209025792913e-04
   221    3.881081280986e-16
   222    8.904487495749e-07
   223    5.099456186399e-07
   224    1.179823965975e-05
   225   -3.566806397658e-05
   226    6.613297409417e-05
   227   -2.265851315138e-04
   228    2.051294154308e-12
   229   -1.638568332709e-15
   230   -1.110480243871e-06
   231    1.189582364497e-12
   232   -8.740269232454e-16
   233    2.708006553026e-06
   234   -4.324949060441e-12
   235   -3.834997285883e-16
   236    8.730831764614e-06
   237    7.811400819047e-12
   238    2.313849319055e-15
   239   -1.956533946761e-05
   240    1.114333316550e-13
   241   -9.254790810851e-15
   242    1.485043859279e-04
   243    1.817133871774e-03
   244   -1.167618143672e-12
   245    8.239502998749e-15
   246   -4.193688771677e-04
   247    6.442725226628e-04
   248   -4.500897218708e-12
   249    2.790992463351e-14
   250   -3.035155697131e-04
   251    2.290453089301e-05
   252   -3.347136039990e-12
   253   -6.485038545632e-17
   254   -2.675112642674e-06
   255    1.664377891051e-16
Sym=X
Ene= -0.025832
Spin=Alpha
Occup=1
     1   -1.566574026836e-04
     2   -1.826342545354e-04
     3    4.309938877464e-05
     4    6.778730220604e-05
     5   -1.113129485549e-04
     6    9.512923382608e-17
     7    1.095646767756e-04
     8   -4.136468296383e-04
     9   -3.202233469024e-03
    10   -1.597445181835e-02
    11   -5.484398908888e-02
    12   -1.295764433445e-01
    13   -4.735342286670e-02
    14   -1.733859823307e-01
    15   -5.649247785424e-05
    16   -1.263657867102e-15
    17    3.037440939736e-05
    18   -7.589819135396e-04
    19    1.195471773981e-04
    20    1.940713508391e-15
    21    4.577848699067e-04
    22   -4.839738818363e-04
    23   -2.567125503611e-04
    24   -3.873711171521e-15
    25   -2.532472177107e-04
    26   -7.766109145597e-05
    27    1.911302208612e-05
    28    1.348464724003e-14
    29    8.134626055756e-05
    30   -1.206707959663e-05
    31   -7.617201417562e-05
    32   -6.121463644402e-14
    33   -8.649052047692e-05
    34   -2.675970119004e-04
    35    3.387218571475e-05
    36    2.037951620351e-16
    37    6.799495267647e-05
    38    4.152258567766e-16
    39   -6.662836069419e-04
    40   -5.158081017852e-03
    41   -2.573085658330e-02
    42   -8.834195957130e-02
    43   -2.087046117619e-01
    44   -7.625206999198e-02
    45   -2.793547314431e-01
    46    2.853269460425e-05
    47    3.440771731719e-16
    48   -5.264044880393e-05
    49   -1.024424181507e-03
    50    2.831441985730e-05
    51   -1.897730561429e-15
    52   -2.729495118384e-04
    53   -7.387794886013e-04
    54   -2.395199118648e-04
    55    3.363093106131e-15
    56    2.917756354705e-05
    57    1.001835840056e-03
    58    3.231808071211e-04
    59   -1.943588065185e-14
    60   -1.742915794773e-04
    61    7.061857923787e-05
    62    1.406189447339e-04
    63    1.193902770065e-13
    64    7.215292581070e-05
    65   -2.137441570745e-04
    66    5.224658755247e-06
    67   -5.674665584325e-16
    68   -3.195949129737e-06
    69    5.260481872182e-16
    70   -2.442120631294e-04
    71   -2.833062217647e-04
    72    4.525848830417e-05
    73    1.511787485425e-04
    74   -1.792303105825e-04
    75   -2.127088168642e-16
    76   -1.316658853445e-04
    77   -1.307066585968e-11
    78   -1.011875136830e-10
    79   -5.047677038123e-10
    80   -1.732952443562e-09
    81   -4.093887079737e-09
    82   -1.485285596417e-09
    83   -5.477063213553e-09
    84    1.035626120781e-04
    85    4.693921616958e-16
    86   -3.440314405399e-12
    87   -7.138733716347e-11
    88    7.634088362874e-04
    89    1.300965831782e-16
    90   -4.418964345019e-11
    91   -3.226260675346e-11
    92   -4.305012672713e-04
    93   -5.363629785203e-16
    94   -1.621443646901e-11
    95   -4.582526212583e-10
    96    6.223240275086e-04
    97    1.718928819148e-14
    98   -9.146513707058e-11
    99   -2.453473478704e-11
   100   -1.383440754818e-04
   101   -1.081606107003e-13
   102    1.913866472654e-12
   103    1.333467983217e-11
   104    4.395009058985e-04
   105    2.279509871468e-16
   106   -1.253989955197e-11
   107    4.543946442818e-16
   108   -8.165045626800e-12
   109   -2.470724407192e-11
   110    1.608507724679e-11
   111   -2.432453684763e-11
   112    6.733328919909e-05
   113    4.499478670609e-16
   114   -1.379161103470e-11
   115    6.662834974880e-04
   116    5.158080170498e-03
   117    2.573085235638e-02
   118    8.834194505877e-02
   119    2.087045774798e-01
   120    7.625205749080e-02
   121    2.793546855475e-01
   122    2.853268638207e-05
   123   -2.589316020462e-15
   124    5.264043155400e-05
   125    1.024423923576e-03
   126    2.831446884322e-05
   127    5.214768242149e-16
   128    2.729494400034e-04
   129    7.387795645790e-04
   130   -2.395199780275e-04
   131   -1.519894952365e-15
   132   -2.917751435783e-05
   133   -1.001835695586e-03
   134    3.231805599748e-04
   135   -9.526192929054e-15
   136    1.742915632344e-04
   137   -7.061855253970e-05
   138    1.406189433084e-04
   139    7.158065582562e-14
   140   -7.215294384905e-05
   141    2.137441135650e-04
   142    5.224637058105e-06
   143   -9.812527103158e-16
   144    3.195951417673e-06
   145   -2.273510395429e-16
   146    2.442120165984e-04
   147    2.833061598391e-04
   148   -4.525840184803e-05
   149   -1.511786243996e-04
   150   -1.792302699603e-04
   151    3.583940424886e-16
   152    1.316658585829e-04
   153    4.136466825813e-04
   154    3.202232330549e-03
   155    1.597444613929e-02
   156    5.484396959027e-02
   157    1.295763972856e-01
   158    4.735340606089e-02
   159    1.733859206620e-01
   160   -5.649247031602e-05
   161    4.344695888785e-16
   162   -3.037441069989e-05
   163    7.589816160632e-04
   164    1.195472129804e-04
   165   -4.650555872870e-16
   166   -4.577847872969e-04
   167    4.839736855919e-04
   168   -2.567124562512e-04
   169    2.164011813162e-15
   170    2.532472582943e-04
   171    7.766150983268e-05
   172    1.911295293057e-05
   173    1.671038457902e-15
   174   -8.134646670263e-05
   175    1.206713447517e-05
   176   -7.617203571754e-05
   177   -1.367190325198e-14
   178    8.649061203588e-05
   179    2.675969666674e-04
   180    3.387219846104e-05
   181    8.126808001532e-17
   182   -6.799495428591e-05
   183   -1.308692963348e-15
   184    1.566573467605e-04
   185    1.826341579588e-04
   186   -4.309935773717e-05
   187   -6.778722661591e-05
   188   -1.113129007956e-04
   189   -5.176860834167e-16
   190   -1.095646441509e-04
   191    1.689761913245e-12
   192    1.307911721990e-11
   193    6.527090592892e-11
   194    2.241053421607e-10
   195    5.304695487580e-10
   196    2.124408560904e-10
   197    7.117730951379e-10
   198    4.322453691768e-05
   199    4.518179623547e-16
   200    9.580627813500e-12
   201   -8.756586141364e-11
   202    6.743177341140e-04
   203    1.903562654836e-15
   204    3.646928250062e-11
   205    1.245255275042e-10
   206   -5.708739150202e-04
   207   -6.622583793195e-16
   208   -7.237819852611e-11
   209   -1.546694376217e-10
   210    6.512751033746e-05
   211    1.662623532710e-15
   212    3.085797152943e-10
   213    1.661489545835e-12
   214    8.801250640377e-05
   215   -3.189359470843e-14
   216   -7.556766894919e-11
   217    1.387398132634e-11
   218   -3.403110209877e-04
   219   -3.212691734573e-16
   220   -1.509509220088e-11
   221   -5.497193082669e-16
   222   -1.169789105639e-13
   223   -9.689153121390e-14
   224   -1.296798437284e-12
   225    4.084301041383e-12
   226   -7.179596295197e-12
   227    2.452931623588e-11
   228    1.181263503967e-05
   229   -8.561759892547e-15
   230    2.694991672410e-13
   231    7.425960519321e-06
   232   -2.835175658049e-15
   233   -2.652070493993e-13
   234   -2.703588643445e-05
   235   -6.001166143595e-17
   236   -1.286924501216e-12
   237    5.433255575250e-05
   238    6.685907359361e-16
   239    2.627002103198e-12
   240   -5.797989442759e-06
   241    4.082626236682e-16
   242   -1.633700334622e-11
   243   -2.057057543599e-10
   244    2.204712190711e-05
   245   -3.472963900085e-15
   246    4.758980888490e-11
   247   -7.677068434209e-11
   248   -3.486771744435e-05
   249    2.968385426833e-14
   250    3.363849431203e-11
   251   -2.773710098703e-12
   252   -2.054610577676e-05
   253   -3.095601903187e-16
   254    2.721284195840e-13
   255   -7.548472276397e-17
Sym=X
Ene= -0.239187
Spin=Alpha
Occup=1
     1    1.628540936111e-04
     2    2.656434296937e-04
     3    2.752537651522e-04
     4   -8.838208012806e-05
     5    1.279590396681e-04
     6   -3.057008181398e-16
     7   -3.664328637352e-05
     8    5.236113106889e-04
     9    4.053651980152e-03
    10    2.022098449784e-02
    11    6.942740805918e-02
    12    1.640032375952e-01
    13    5.995092360826e-02
    14    2.196021535543e-01
    15    2.724295878006e-05
    16    5.065983270268e-16
    17    9.457609492387e-05
    18    5.108770452483e-04
    19    9.156805274046e-05
    20   -7.115734161064e-16
    21    3.360328166768e-04
    22    1.910064005642e-03
    23    7.734398553433e-04
    24   -3.384498887714e-15
    25   -7.421672537023e-04
    26   -5.819446139492e-04
    27    1.738403160808e-04
    28    9.016988525123e-16
    29    3.016800589566e-04
    30   -4.807069669674e-05
    31   -4.434639277709e-05
    32    3.039791326056e-13
    33    1.316597401674e-04
    34   -1.465408562257e-04
    35    5.270863246477e-05
    36    4.811642487030e-16
    37    1.582794236803e-04
    38   -1.918261396516e-16
    39   -5.693289753783e-04
    40   -4.407582439975e-03
    41   -2.198650889681e-02
    42   -7.548893318847e-02
    43   -1.783205349191e-01
    44   -6.513094142016e-02
    45   -2.387781598580e-01
    46    3.979284844902e-05
    47   -1.017805287480e-16
    48    4.923961251787e-05
    49   -7.075591158834e-04
    50   -2.727392525297e-04
    51   -1.002969957362e-15
    52    3.679669994794e-04
    53   -1.908652549864e-03
    54   -7.229954016779e-04
    55   -9.238382634492e-18
    56   -7.442308328510e-04
    57    2.502858111062e-04
    58   -3.409514137742e-04
    59   -4.608604364636e-15
    60    2.490274975592e-04
    61   -4.251389246513e-05
    62    1.993628386591e-05
    63   -2.267346109697e-13
    64   -6.960383792091e-05
    65    1.485899384229e-04
    66    1.210714092066e-04
    67   -1.970100418440e-16
    68   -1.861410172169e-04
    69    1.090615265924e-16
    70   -1.900666099354e-04
    71   -3.230115732154e-04
    72   -2.214780237067e-04
    73   -5.641498271505e-05
    74   -1.649820687617e-04
    75   -8.897082835776e-16
    76   -5.034088158909e-05
    77   -1.839499163247e-04
    78   -1.423969763077e-03
    79   -7.103957608948e-03
    80   -2.438729948894e-02
    81   -5.763416274854e-02
    82   -2.105157541911e-02
    83   -7.703576569881e-02
    84    3.098323649770e-13
    85   -4.259194785991e-16
    86   -7.834773897689e-05
    87   -6.102106510554e-04
    88    5.938307941082e-12
    89   -9.885949199960e-16
    90   -1.832473089904e-04
    91    1.191806750894e-03
    92   -3.806452113522e-12
    93   -4.111393155240e-15
    94    8.465004547624e-04
    95    9.222172773950e-04
    96    2.396922856180e-12
    97    1.353458611061e-15
    98    3.345957743492e-04
    99   -2.192704187363e-05
   100   -1.119502408448e-12
   101    2.233616470218e-13
   102    6.163152636853e-05
   103    1.225911155404e-04
   104    3.479068673081e-12
   105   -1.505620856791e-16
   106   -1.200872612678e-04
   107   -8.606668530374e-17
   108   -9.649646545072e-05
   109   -3.005984630694e-05
   110    3.257361606279e-04
   111    2.124806454400e-04
   112    5.538665084807e-13
   113   -3.970143986221e-16
   114   -1.057080622105e-04
   115   -5.693289680052e-04
   116   -4.407582382898e-03
   117   -2.198650861207e-02
   118   -7.548893221093e-02
   119   -1.783205326093e-01
   120   -6.513094057613e-02
   121   -2.387781567680e-01
   122   -3.979284829447e-05
   123    1.074236705836e-15
   124    4.923961460238e-05
   125   -7.075591014091e-04
   126    2.727392539303e-04
   127   -2.104418501805e-15
   128    3.679670091464e-04
   129   -1.908652543394e-03
   130    7.229954000449e-04
   131   -7.379152913482e-16
   132   -7.442308363333e-04
   133    2.502858022437e-04
   134    3.409514124723e-04
   135    6.386267851194e-16
   136    2.490274983095e-04
   137   -4.251389326428e-05
   138   -1.993628199146e-05
   139   -2.427097113874e-13
   140   -6.960384014311e-05
   141    1.485899442811e-04
   142   -1.210714096257e-04
   143    3.937899526219e-16
   144   -1.861410189759e-04
   145   -1.858284512813e-17
   146   -1.900666069600e-04
   147   -3.230115695822e-04
   148   -2.214780254103e-04
   149   -5.641498376545e-05
   150    1.649820664428e-04
   151   -2.430847953222e-16
   152   -5.034087933208e-05
   153    5.236113285098e-04
   154    4.053652118113e-03
   155    2.022098518605e-02
   156    6.942741042205e-02
   157    1.640032431773e-01
   158    5.995092564825e-02
   159    2.196021610261e-01
   160   -2.724296086276e-05
   161    3.161696835185e-17
   162    9.457609591427e-05
   163    5.108770722268e-04
   164   -9.156804957527e-05
   165    5.442023594422e-17
   166    3.360328089343e-04
   167    1.910064029078e-03
   168   -7.734398661377e-04
   169   -1.642606963972e-15
   170   -7.421672500536e-04
   171   -5.819446676674e-04
   172   -1.738403023752e-04
   173   -4.703908790517e-15
   174    3.016800439553e-04
   175   -4.807069780382e-05
   176    4.434639211867e-05
   177    3.185850495034e-13
   178    1.316597425347e-04
   179   -1.465408507756e-04
   180   -5.270863191193e-05
   181   -1.159823335972e-16
   182    1.582794237188e-04
   183    1.932386976185e-16
   184    1.628540999625e-04
   185    2.656434365232e-04
   186    2.752537659972e-04
   187   -8.838208176638e-05
   188   -1.279590440082e-04
   189   -3.013603552693e-17
   190   -3.664328973805e-05
   191   -1.566511018127e-05
   192   -1.213729661880e-04
   193   -6.048646167006e-04
   194   -2.079767444468e-03
   195   -4.891139627091e-03
   196   -1.790901757872e-03
   197   -6.667029724904e-03
   198    1.383782831511e-12
   199    1.808181740292e-17
   200   -9.451725599939e-05
   201    3.266652539284e-04
   202    1.151021427210e-11
   203   -3.315779696053e-16
   204   -8.371179486164e-05
   205   -1.369281673710e-03