[Molden Format]
[Atoms] (Angs)
  H      1    1     -2.14003202      0.00000000      0.38146042
  C      2    6     -1.21205832      0.00000000     -0.17180643
  C      3    6     -1.20429565      0.00000000     -1.56369320
  H      4    1     -2.14371879      0.00000000     -2.09923439
  C      5    6     -0.00000000      0.00000000     -2.26269040
  H      6    1     -0.00000000      0.00000000     -3.34354440
  C      7    6      1.20429565      0.00000000     -1.56369320
  H      8    1      2.14371879      0.00000000     -2.09923439
  C      9    6      1.21205832     -0.00000000     -0.17180643
  H     10    1      2.14003202     -0.00000000      0.38146042
  C     11    6      0.00000000     -0.00000000      0.51110416
 Cl     12   17      0.00000000     -0.00000000      2.24203561
[GTO]
1    0
S    3    1.000000
   3.38650000E+01    2.54938000E-02 
   5.09479000E+00    1.90373000E-01 
   1.15879000E+00    8.52161000E-01 
S    1    1.000000
   3.25840000E-01    1.00000000E+00 
S    1    1.000000
   1.02741000E-01    1.00000000E+00 
S    1    1.000000
   3.60000000E-02    1.00000000E+00 
P    1    1.000000
   7.50000000E-01    1.00000000E+00 

2    0
S    1    1.000000
   4.56324000E+03    1.96665000E-03 
S    1    1.000000
   6.82024000E+02    1.52306000E-02 
S    1    1.000000
   1.54973000E+02    7.61269000E-02 
S    1    1.000000
   4.44553000E+01    2.60801000E-01 
S    1    1.000000
   1.30290000E+01    6.16462000E-01 
S    1    1.000000
   1.82773000E+00    2.21006000E-01 
SP   3    1.000000
   2.09642000E+01    1.14660000E-01   4.02487000E-02 
   4.80331000E+00    9.19999000E-01   2.37594000E-01 
   1.45933000E+00   -3.03068000E-03   8.15854000E-01 
SP   1    1.000000
   4.83456000E-01    1.00000000E+00   1.00000000E+00 
SP   1    1.000000
   1.45585000E-01    1.00000000E+00   1.00000000E+00 
SP   1    1.000000
   4.38000000E-02    1.00000000E+00   1.00000000E+00 
SP   1    1.000000
   1.31927711E-02    1.00000000E+00   1.00000000E+00 
D    1    1.000000
   6.26000000E-01    1.00000000E+00 

3    0
S    1    1.000000
   4.56324000E+03    1.96665000E-03 
S    1    1.000000
   6.82024000E+02    1.52306000E-02 
S    1    1.000000
   1.54973000E+02    7.61269000E-02 
S    1    1.000000
   4.44553000E+01    2.60801000E-01 
S    1    1.000000
   1.30290000E+01    6.16462000E-01 
S    1    1.000000
   1.82773000E+00    2.21006000E-01 
SP   3    1.000000
   2.09642000E+01    1.14660000E-01   4.02487000E-02 
   4.80331000E+00    9.19999000E-01   2.37594000E-01 
   1.45933000E+00   -3.03068000E-03   8.15854000E-01 
SP   1    1.000000
   4.83456000E-01    1.00000000E+00   1.00000000E+00 
SP   1    1.000000
   1.45585000E-01    1.00000000E+00   1.00000000E+00 
SP   1    1.000000
   4.38000000E-02    1.00000000E+00   1.00000000E+00 
SP   1    1.000000
   1.31927711E-02    1.00000000E+00   1.00000000E+00 
D    1    1.000000
   6.26000000E-01    1.00000000E+00 

4    0
S    3    1.000000
   3.38650000E+01    2.54938000E-02 
   5.09479000E+00    1.90373000E-01 
   1.15879000E+00    8.52161000E-01 
S    1    1.000000
   3.25840000E-01    1.00000000E+00 
S    1    1.000000
   1.02741000E-01    1.00000000E+00 
S    1    1.000000
   3.60000000E-02    1.00000000E+00 
P    1    1.000000
   7.50000000E-01    1.00000000E+00 

5    0
S    1    1.000000
   4.56324000E+03    1.96665000E-03 
S    1    1.000000
   6.82024000E+02    1.52306000E-02 
S    1    1.000000
   1.54973000E+02    7.61269000E-02 
S    1    1.000000
   4.44553000E+01    2.60801000E-01 
S    1    1.000000
   1.30290000E+01    6.16462000E-01 
S    1    1.000000
   1.82773000E+00    2.21006000E-01 
SP   3    1.000000
   2.09642000E+01    1.14660000E-01   4.02487000E-02 
   4.80331000E+00    9.19999000E-01   2.37594000E-01 
   1.45933000E+00   -3.03068000E-03   8.15854000E-01 
SP   1    1.000000
   4.83456000E-01    1.00000000E+00   1.00000000E+00 
SP   1    1.000000
   1.45585000E-01    1.00000000E+00   1.00000000E+00 
SP   1    1.000000
   4.38000000E-02    1.00000000E+00   1.00000000E+00 
SP   1    1.000000
   1.31927711E-02    1.00000000E+00   1.00000000E+00 
D    1    1.000000
   6.26000000E-01    1.00000000E+00 

6    0
S    3    1.000000
   3.38650000E+01    2.54938000E-02 
   5.09479000E+00    1.90373000E-01 
   1.15879000E+00    8.52161000E-01 
S    1    1.000000
   3.25840000E-01    1.00000000E+00 
S    1    1.000000
   1.02741000E-01    1.00000000E+00 
S    1    1.000000
   3.60000000E-02    1.00000000E+00 
P    1    1.000000
   7.50000000E-01    1.00000000E+00 

7    0
S    1    1.000000
   4.56324000E+03    1.96665000E-03 
S    1    1.000000
   6.82024000E+02    1.52306000E-02 
S    1    1.000000
   1.54973000E+02    7.61269000E-02 
S    1    1.000000
   4.44553000E+01    2.60801000E-01 
S    1    1.000000
   1.30290000E+01    6.16462000E-01 
S    1    1.000000
   1.82773000E+00    2.21006000E-01 
SP   3    1.000000
   2.09642000E+01    1.14660000E-01   4.02487000E-02 
   4.80331000E+00    9.19999000E-01   2.37594000E-01 
   1.45933000E+00   -3.03068000E-03   8.15854000E-01 
SP   1    1.000000
   4.83456000E-01    1.00000000E+00   1.00000000E+00 
SP   1    1.000000
   1.45585000E-01    1.00000000E+00   1.00000000E+00 
SP   1    1.000000
   4.38000000E-02    1.00000000E+00   1.00000000E+00 
SP   1    1.000000
   1.31927711E-02    1.00000000E+00   1.00000000E+00 
D    1    1.000000
   6.26000000E-01    1.00000000E+00 

8    0
S    3    1.000000
   3.38650000E+01    2.54938000E-02 
   5.09479000E+00    1.90373000E-01 
   1.15879000E+00    8.52161000E-01 
S    1    1.000000
   3.25840000E-01    1.00000000E+00 
S    1    1.000000
   1.02741000E-01    1.00000000E+00 
S    1    1.000000
   3.60000000E-02    1.00000000E+00 
P    1    1.000000
   7.50000000E-01    1.00000000E+00 

9    0
S    1    1.000000
   4.56324000E+03    1.96665000E-03 
S    1    1.000000
   6.82024000E+02    1.52306000E-02 
S    1    1.000000
   1.54973000E+02    7.61269000E-02 
S    1    1.000000
   4.44553000E+01    2.60801000E-01 
S    1    1.000000
   1.30290000E+01    6.16462000E-01 
S    1    1.000000
   1.82773000E+00    2.21006000E-01 
SP   3    1.000000
   2.09642000E+01    1.14660000E-01   4.02487000E-02 
   4.80331000E+00    9.19999000E-01   2.37594000E-01 
   1.45933000E+00   -3.03068000E-03   8.15854000E-01 
SP   1    1.000000
   4.83456000E-01    1.00000000E+00   1.00000000E+00 
SP   1    1.000000
   1.45585000E-01    1.00000000E+00   1.00000000E+00 
SP   1    1.000000
   4.38000000E-02    1.00000000E+00   1.00000000E+00 
SP   1    1.000000
   1.31927711E-02    1.00000000E+00   1.00000000E+00 
D    1    1.000000
   6.26000000E-01    1.00000000E+00 

10    0
S    3    1.000000
   3.38650000E+01    2.54938000E-02 
   5.09479000E+00    1.90373000E-01 
   1.15879000E+00    8.52161000E-01 
S    1    1.000000
   3.25840000E-01    1.00000000E+00 
S    1    1.000000
   1.02741000E-01    1.00000000E+00 
S    1    1.000000
   3.60000000E-02    1.00000000E+00 
P    1    1.000000
   7.50000000E-01    1.00000000E+00 

11    0
S    1    1.000000
   4.56324000E+03    1.96665000E-03 
S    1    1.000000
   6.82024000E+02    1.52306000E-02 
S    1    1.000000
   1.54973000E+02    7.61269000E-02 
S    1    1.000000
   4.44553000E+01    2.60801000E-01 
S    1    1.000000
   1.30290000E+01    6.16462000E-01 
S    1    1.000000
   1.82773000E+00    2.21006000E-01 
SP   3    1.000000
   2.09642000E+01    1.14660000E-01   4.02487000E-02 
   4.80331000E+00    9.19999000E-01   2.37594000E-01 
   1.45933000E+00   -3.03068000E-03   8.15854000E-01 
SP   1    1.000000
   4.83456000E-01    1.00000000E+00   1.00000000E+00 
SP   1    1.000000
   1.45585000E-01    1.00000000E+00   1.00000000E+00 
SP   1    1.000000
   4.38000000E-02    1.00000000E+00   1.00000000E+00 
SP   1    1.000000
   1.31927711E-02    1.00000000E+00   1.00000000E+00 
D    1    1.000000
   6.26000000E-01    1.00000000E+00 

12    0
S    6    1.000000
   1.05819000E+05    7.38000000E-04 
   1.58720000E+04    5.71800000E-03 
   3.61965000E+03    2.94950000E-02 
   1.03080000E+03    1.17286000E-01 
   3.39908000E+02    3.62949000E-01 
   1.24538000E+02    5.84149000E-01 
S    3    1.000000
   1.24538000E+02    1.34177000E-01 
   4.95135000E+01    6.24250000E-01 
   2.08056000E+01    2.91756000E-01 
S    1    1.000000
   6.58346000E+00    1.00000000E+00 
S    1    1.000000
   2.56468000E+00    1.00000000E+00 
S    1    1.000000
   5.59763000E-01    1.00000000E+00 
S    1    1.000000
   1.83273000E-01    1.00000000E+00 
P    5    1.000000
   5.89776000E+02    2.39100000E-03 
   1.39849000E+02    1.85040000E-02 
   4.51413000E+01    8.13770000E-02 
   1.68733000E+01    2.21552000E-01 
   6.74110000E+00    7.72569000E-01 
P    2    1.000000
   6.74110000E+00   -1.57224400E+00 
   2.77152000E+00    9.92389000E-01 
P    1    1.000000
   1.02387000E+00    1.00000000E+00 
P    1    1.000000
   3.81368000E-01    1.00000000E+00 
P    1    1.000000
   1.09437000E-01    1.00000000E+00 
SP   1    1.000000
   4.83000000E-02    1.00000000E+00   1.00000000E+00 
SP   1    1.000000
   1.45481928E-02    1.00000000E+00   1.00000000E+00 
D    1    1.000000
   7.50000000E-01    1.00000000E+00 

[MO]
Sym=X
Ene= -0.021594
Spin=Alpha
Occup=1
     1    2.332747295973e-04
     2    3.739964297250e-04
     3    1.798005966159e-04
     4   -2.001219868005e-04
     5    1.883573937898e-04
     6   -1.946520002073e-16
     7   -8.205976387991e-05
     8    6.959000529776e-04
     9    5.387456958314e-03
    10    2.687444943316e-02
    11    9.227133810844e-02
    12    2.179652890150e-01
    13    7.963210829562e-02
    14    2.918442449342e-01
    15    3.743984941087e-05
    16    9.512011366001e-16
    17    7.990050151674e-05
    18    9.221012414920e-04
    19    1.335186951644e-04
    20   -1.921037789030e-15
    21    1.791628929348e-04
    22    1.885887425213e-03
    23    7.608068235904e-04
    24   -7.974367960499e-16
    25   -6.956701880027e-04
    26   -1.169997451198e-03
    27    4.272728768051e-05
    28   -2.448085927605e-14
    29    5.834831916158e-04
    30   -1.230232567610e-04
    31   -7.191215503245e-05
    32    5.049577859026e-13
    33    4.228236651216e-06
    34   -6.163821873986e-05
    35    7.261206016052e-05
    36    4.121119127331e-16
    37    1.446576518902e-04
    38   -1.217404262887e-16
    39   -3.088491314668e-04
    40   -2.391021664570e-03
    41   -1.192725026291e-02
    42   -4.095133034512e-02
    43   -9.673670629710e-02
    44   -3.535991374090e-02
    45   -1.295382553254e-01
    46    5.967953863757e-06
    47   -4.129418609008e-16
    48    7.801109960314e-05
    49   -2.399214048702e-04
    50   -2.244116615303e-04
    51   -7.871933900341e-16
    52    4.865070704140e-04
    53   -1.627679071056e-03
    54   -6.307377570757e-04
    55   -2.518451356972e-15
    56   -7.137532233601e-04
    57   -1.174758178646e-05
    58   -6.653457836603e-04
    59    1.495192777184e-14
    60    2.852378102663e-04
    61   -7.717800436924e-05
    62    1.653631853091e-05
    63   -4.022031063387e-13
    64   -5.436276554333e-05
    65    2.220780368801e-04
    66    1.093072048740e-04
    67   -2.219035253472e-16
    68   -1.802052211645e-04
    69   -1.739900959711e-16
    70   -9.106595344667e-05
    71   -1.791434594821e-04
    72   -2.894865263669e-04
    73   -2.186594091914e-04
    74   -8.563619788801e-05
    75   -8.730160887998e-16
    76    2.283684835869e-06
    77   -2.665239504161e-04
    78   -2.063256465062e-03
    79   -1.029282490280e-02
    80   -3.533680548352e-02
    81   -8.349582853988e-02
    82   -3.053103553005e-02
    83   -1.116911696555e-01
    84    2.773734537429e-12
    85   -2.962489059466e-16
    86   -4.814645420261e-05
    87   -5.130888355616e-04
    88    3.402576267204e-11
    89   -1.689090124649e-15
    90   -3.538732561096e-05
    91    8.668897288255e-04
    92   -2.114162432329e-11
    93   -2.767579578087e-15
    94    6.619231233806e-04
    95    2.262651016257e-03
    96    3.008411501726e-11
    97   -1.592319065049e-14
    98    5.626399203346e-04
    99    5.325005291686e-05
   100   -6.070245650754e-12
   101    3.909189439292e-13
   102    7.054804656679e-05
   103    6.075180119729e-05
   104    1.983383070479e-11
   105   -8.657096085616e-18
   106   -8.763612091322e-05
   107   -1.237304884952e-16
   108   -1.099886902580e-04
   109   -1.872309119310e-05
   110    2.165301219994e-04
   111    2.661584047419e-04
   112    3.113234204796e-12
   113   -3.246676385620e-16
   114   -9.367357824699e-05
   115   -3.088490832420e-04
   116   -2.391021291242e-03
   117   -1.192724840053e-02
   118   -4.095132395120e-02
   119   -9.673669119041e-02
   120   -3.535990822096e-02
   121   -1.295382351109e-01
   122   -5.967952381431e-06
   123   -8.589604135980e-17
   124    7.801110902593e-05
   125   -2.399213189876e-04
   126    2.244116676035e-04
   127   -1.483413337553e-15
   128    4.865071152392e-04
   129   -1.627679023431e-03
   130    6.307377436803e-04
   131   -3.191943365574e-15
   132   -7.137532382614e-04
   133   -1.174766734949e-05
   134    6.653458149187e-04
   135    1.887020774402e-14
   136    2.852378323871e-04
   137   -7.717801108880e-05
   138   -1.653630627913e-05
   139   -4.161884121558e-13
   140   -5.436277538282e-05
   141    2.220780654591e-04
   142   -1.093072062946e-04
   143    2.973217853996e-16
   144   -1.802052276461e-04
   145    1.962794440303e-16
   146   -9.106593474629e-05
   147   -1.791434371031e-04
   148   -2.894865356065e-04
   149   -2.186594249411e-04
   150    8.563618368456e-05
   151   -3.186321641618e-16
   152    2.283697374660e-06
   153    6.959001325571e-04
   154    5.387457574385e-03
   155    2.687445250639e-02
   156    9.227134865985e-02
   157    2.179653139422e-01
   158    7.963211740528e-02
   159    2.918442782985e-01
   160   -3.743985896595e-05
   161    4.414329479382e-16
   162    7.990050427567e-05
   163    9.221013661749e-04
   164   -1.335186796199e-04
   165   -1.228891483825e-15
   166    1.791628498006e-04
   167    1.885887527120e-03
   168   -7.608068718853e-04
   169    6.899581409231e-16
   170   -6.956701672694e-04
   171   -1.169997546725e-03
   172   -4.272727191465e-05
   173   -2.891397946939e-14
   174    5.834831652825e-04
   175   -1.230232578977e-04
   176    7.191214935119e-05
   177    5.182767026365e-13
   178    4.228248029710e-06
   179   -6.163819009521e-05
   180   -7.261205708081e-05
   181   -1.789566698670e-17
   182    1.446576499225e-04
   183    1.470466947561e-16
   184    2.332747582298e-04
   185    3.739964611683e-04
   186    1.798005986184e-04
   187   -2.001219910831e-04
   188   -1.883574135381e-04
   189   -5.480832805539e-17
   190   -8.205977988002e-05
   191   -1.527572398973e-05
   192   -1.183478687369e-04
   193   -5.898888192516e-04
   194   -2.028162762216e-03
   195   -4.773918561185e-03
   196   -1.803035478591e-03
   197   -6.505095194740e-03
   198    5.866017832202e-12
   199   -6.248033009147e-17
   200   -1.097197778311e-04
   201    5.564884443644e-04
   202    5.350545390260e-11
   203   -2.599980107444e-16
   204   -1.893259936954e-04
   205   -1.454704402256e-03
   206   -4.211559940378e-11
   207   -3.270189915704e-15
   208    8.237300935291e-04
   209    1.762741342503e-04
   210    3.450793761219e-11
   211    3.398477149219e-14
   212   -8.906475329771e-04
   213   -8.077920049445e-05
   214    4.132897476109e-12
   215   -6.442618575655e-13
   216   -1.320674218796e-04
   217   -1.307509995038e-04
   218   -2.644947029834e-11
   219    1.450686696887e-16
   220    1.305690033272e-04
   221   -9.596390876576e-17
   222    1.296717590303e-06
   223    2.508402518504e-06
   224    2.673424497048e-06
   225   -1.690546803903e-05
   226    1.443837379022e-05
   227   -1.772163819325e-04
   228    9.796003242974e-13
   229   -8.300457309304e-16
   230   -5.814632584292e-06
   231    5.692283610995e-13
   232   -8.555514668308e-16
   233    1.560967730276e-06
   234   -2.061922903136e-12
   235    5.554164659607e-16
   236    9.177400219492e-06
   237    3.700453582735e-12
   238    1.884617341784e-16
   239    1.027561851687e-05
   240    2.491873288409e-14
   241   -9.781765912772e-16
   242    8.504075408092e-05
   243    5.097817023531e-04
   244   -1.000620006144e-12
   245   -2.771062347641e-15
   246   -1.352725939363e-04
   247    5.423653155493e-04
   248   -1.960957328551e-12
   249    5.792275606867e-14
   250   -9.819126761049e-05
   251    1.941723208872e-05
   252   -1.590983757202e-12
   253   -1.812001851142e-16
   254    1.141734454835e-06
   255   -1.711843955473e-17
Sym=X
Ene= -0.036775
Spin=Alpha
Occup=1
     1   -1.880362764127e-04
     2   -1.852096201106e-04
     3   -1.304742020929e-04
     4   -9.523979506227e-05
     5   -1.229706986779e-04
     6   -1.319589713755e-16
     7    5.827552732708e-05
     8   -5.690426502295e-04
     9   -4.405380636334e-03
    10   -2.197542628558e-02
    11   -7.545150048710e-02
    12   -1.782304262507e-01
    13   -6.513463692054e-02
    14   -2.386581464954e-01
    15   -5.387186526400e-05
    16   -8.311365396920e-16
    17   -1.148218514602e-04
    18   -6.561376190597e-04
    19    2.881286830277e-05
    20    4.764380646418e-16
    21   -1.889545412706e-04
    22   -8.202701728366e-04
    23   -3.340704813133e-04
    24    1.046361946928e-15
    25    1.654070826785e-04
    26    1.197637453811e-03
    27    3.217035698999e-06
    28    3.622100117463e-15
    29    9.719059621737e-05
    30    2.737853396915e-05
    31    4.484225937960e-05
    32    3.766772761986e-14
    33   -2.706430506731e-05
    34    4.822478861960e-05
    35   -1.613891383108e-05
    36    3.303025282866e-17
    37   -1.088140912667e-04
    38    8.055963406281e-17
    39    5.399990538952e-04
    40    4.180543033879e-03
    41    2.085380658535e-02
    42    7.160067192687e-02
    43    1.691309127343e-01
    44    6.178296978543e-02
    45    2.264957622444e-01
    46   -3.358837570095e-05
    47   -9.302510582228e-16
    48   -5.948788948131e-05
    49    6.167872324795e-04
    50    5.000361194775e-05
    51    1.115386040559e-15
    52   -2.364399524246e-04
    53    7.014953509253e-04
    54    2.678905170587e-04
    55   -1.963312767752e-15
    56    2.148800195350e-04
    57   -4.123340230312e-04
    58    4.994006030732e-05
    59    2.045812756261e-15
    60   -1.246266276328e-04
    61   -1.628771587228e-05
    62   -6.352173796438e-05
    63   -7.953759233108e-14
    64    2.335149922295e-05
    65   -6.567786745731e-05
    66   -3.704364150553e-05
    67    5.126154919324e-16
    68    1.248132016929e-04
    69   -2.326323735941e-16
    70    1.792686438911e-04
    71    1.957755809091e-04
    72    8.041426774206e-05
    73    5.264620566653e-06
    74    1.229708246012e-04
    75   -1.869647032459e-17
    76    5.184417965030e-05
    77   -2.799462511768e-12
    78   -2.167155133363e-11
    79   -1.081084334757e-10
    80   -3.711590381069e-10
    81   -8.767823195076e-10
    82   -3.177434908604e-10
    83   -1.173119150145e-09
    84   -1.192821989487e-04
    85   -2.961780670810e-16
    86   -6.752722028220e-13
    87   -1.638011359434e-11
    88   -3.858088258987e-04
    89    8.559824077933e-16
    90   -1.069935006656e-11
    91   -1.187736978451e-11
    92    1.440646284350e-04
    93    6.481099292881e-17
    94   -6.849164745989e-12
    95   -1.253501220695e-10
    96   -7.315917290267e-05
    97   -5.279508592359e-15
    98   -2.674356209467e-11
    99   -5.643218402583e-12
   100    7.036211246905e-05
   101    1.011593744304e-13
   102   -1.425226847603e-14
   103    3.066786911064e-12
   104   -2.129517029365e-04
   105   -9.731607640424e-17
   106   -2.875819295506e-12
   107   -5.615080747900e-16
   108   -1.802260203285e-12
   109   -6.234673645547e-12
   110    2.895551475791e-12
   111   -7.981570926249e-12
   112   -2.997282843194e-05
   113   -4.030680995015e-16
   114   -3.215962099306e-12
   115   -5.399990787112e-04
   116   -4.180543225999e-03
   117   -2.085380754372e-02
   118   -7.160067521728e-02
   119   -1.691309205070e-01
   120   -6.178297261924e-02
   121   -2.264957726500e-01
   122   -3.358837758430e-05
   123    1.071001071851e-15
   124    5.948788488161e-05
   125   -6.167872941474e-04
   126    5.000362290958e-05
   127   -1.677014702011e-15
   128    2.364399324407e-04
   129   -7.014953206892e-04
   130    2.678904957484e-04
   131   -6.449710463829e-16
   132   -2.148800027755e-04
   133    4.123340654103e-04
   134    4.993999272035e-05
   135    2.427134805413e-15
   136    1.246266237025e-04
   137    1.628772477214e-05
   138   -6.352173889600e-05
   139   -9.654751672353e-14
   140   -2.335150202677e-05
   141    6.567785573158e-05
   142   -3.704364634519e-05
   143    6.774612312962e-16
   144   -1.248132001772e-04
   145    2.579441568704e-16
   146   -1.792686547023e-04
   147   -1.957755948028e-04
   148   -8.041424417610e-05
   149   -5.264587045584e-06
   150    1.229708340219e-04
   151   -4.655568957998e-16
   152   -5.184418615056e-05
   153    5.690426105045e-04
   154    4.405380328808e-03
   155    2.197542475152e-02
   156    7.545149522004e-02
   157    1.782304138089e-01
   158    6.513463238025e-02
   159    2.386581298370e-01
   160   -5.387186323578e-05
   161    2.703272909476e-16
   162    1.148218506648e-04
   163    6.561375415531e-04
   164    2.881287780731e-05
   165   -9.978342516569e-16
   166    1.889545604425e-04
   167    8.202701121155e-04
   168   -3.340704529566e-04
   169    2.236083643834e-16
   170   -1.654070681569e-04
   171   -1.197637338103e-03
   172    3.217015346531e-06
   173    1.399703383610e-15
   174   -9.719065238069e-05
   175   -2.737851849574e-05
   176    4.484225350242e-05
   177    5.657903215076e-14
   178    2.706432503049e-05
   179   -4.822479931261e-05
   180   -1.613891033769e-05
   181    5.036389281451e-16
   182    1.088140900652e-04
   183   -2.181710350725e-16
   184    1.880362615128e-04
   185    1.852095941809e-04
   186    1.304742088592e-04
   187    9.523981787821e-05
   188   -1.229706859679e-04
   189    1.943905500123e-16
   190   -5.827551890451e-05
   191    4.563599405320e-13
   192    3.528987306621e-12
   193    1.761104304658e-11
   194    6.047259056263e-11
   195    1.430858792868e-10
   196    5.702983354420e-11
   197    1.921907442554e-10
   198    1.217334999731e-04
   199   -1.440734500894e-16
   200    2.651825448553e-12
   201   -2.301997091541e-11
   202    5.134424411315e-04
   203    1.264247296783e-15
   204    9.415183005216e-12
   205    3.574327486637e-11
   206   -3.125275140137e-04
   207   -5.741258099885e-16
   208   -2.060333315063e-11
   209   -4.411260985661e-11
   210    5.908493856322e-04
   211   -6.009279991853e-15
   212    8.418625409398e-11
   213    1.226069453189e-12
   214   -2.942925433772e-05
   215   -5.695544626236e-15
   216   -1.379002929284e-11
   217    3.753071794282e-12
   218   -2.392164299304e-04
   219    9.526721318340e-17
   220   -4.044230233370e-12
   221   -4.665340622009e-18
   222   -3.461059184820e-14
   223   -3.331045685654e-14
   224   -3.246440927087e-13
   225    1.068525227693e-12
   226   -1.833162492251e-12
   227    6.726159625055e-12
   228    9.918861842546e-06
   229    9.482018605037e-16
   230    6.770722552563e-14
   231    4.477022357888e-06
   232   -3.166288517378e-16
   233   -7.530006921843e-14
   234   -1.664270367945e-05
   235    1.199513084371e-15
   236   -3.358695872653e-13
   237    1.724850821762e-05
   238    3.525069392306e-16
   239    5.798221523115e-13
   240    1.839251777534e-05
   241   -5.052891700110e-16
   242   -4.285760248390e-12
   243   -5.629797907989e-11
   244   -6.180370435739e-05
   245    3.118592078828e-15
   246    1.310826376794e-11
   247   -2.572569098408e-11
   248   -3.006244525901e-06
   249   -1.533842238019e-14
   250    8.839926743001e-12
   251   -7.265512864179e-13
   252   -1.411779422799e-05
   253   -2.555505647049e-16
   254    6.247191103183e-14
   255    3.088929441206e-16
Sym=X
Ene= -0.282298
Spin=Alpha
Occup=1
     1   -1.461736457077e-04
     2   -2.582227488694e-04
     3    2.482865944158e-04
     4    2.589776699349e-04
     5   -1.296236729879e-04
     6   -2.572100084883e-16
     7    1.118195919557e-04
     8   -3.409442436737e-04
     9   -2.639493589827e-03
    10   -1.316657869228e-02
    11   -4.520623296090e-02
    12   -1.067825105904e-01
    13   -3.891270792239e-02
    14   -1.429643950561e-01
    15   -1.698934048887e-05
    16   -6.588970552232e-16
    17    3.915425825223e-05
    18   -9.389736940664e-04
    19   -9.672063606415e-05
    20    2.297899173927e-15
    21    4.798461911403e-04
    22    1.023971119055e-04
    23   -1.469713881373e-05
    24   -4.836817222721e-15
    25   -1.807136887498e-04
    26    1.410580386998e-03
    27    3.562915628683e-04
    28    5.141422143923e-14
    29   -6.775423675596e-04
    30    1.941515634306e-04
    31    6.371556090255e-05
    32   -4.056211723255e-13
    33    4.131702534278e-04
    34   -2.459677284219e-04
    35   -2.592898617132e-05
    36    7.980970455598e-17
    37    6.599289984318e-05
    38   -8.366993108768e-17
    39   -6.961222620456e-04
    40   -5.389158005531e-03
    41   -2.688299872878e-02
    42   -9.229977163823e-02
    43   -2.180327509049e-01
    44   -7.955649196965e-02
    45   -2.919182927140e-01
    46    5.282274490730e-05
    47    7.710890902498e-16
    48   -4.669355537366e-05
    49   -1.340015226663e-03
    50   -3.100653883299e-04
    51   -2.222554473321e-16
    52   -1.205666064440e-04
    53   -5.888450686898e-04
    54   -7.885373252670e-05
    55    4.748097706592e-15
    56   -1.466817395996e-04
    57    7.031423958071e-04
    58    8.289909595324e-04
    59   -4.043551002273e-14
    60    4.496407042742e-05
    61    8.626490041250e-05
    62    1.583719440980e-05
    63    3.574513987241e-13
    64   -9.669524090049e-05
    65   -1.063030632465e-04
    66    1.364527052629e-04
    67   -6.427207336765e-17
    68   -7.472511611907e-05
    69    6.344120285911e-16
    70   -2.713981470290e-04
    71   -3.927924659752e-04
    72    2.371971608966e-04
    73    4.675047332968e-04
    74   -2.354478820400e-04
    75   -1.041696920588e-16
    76   -1.292778000345e-04
    77   -1.680348689055e-04
    78   -1.300796970644e-03
    79   -6.489241997425e-03
    80   -2.227763944592e-02
    81   -5.263879683329e-02
    82   -1.914758993095e-02
    83   -7.038429998391e-02
    84   -6.048970541846e-12
    85    3.127838956593e-17
    86   -6.443574211467e-05
    87   -8.158775294527e-04
    88   -6.854536607748e-11
    89    1.303589853546e-15
    90   -4.311780912671e-04
    91    3.191742299825e-04
    92    4.225456606205e-11
    93   -2.531070696181e-15
    94    2.711579401687e-04
    95   -3.247324860848e-03
    96   -6.690953175874e-11
    97    3.494679697695e-14
    98   -5.830375544108e-04
    99   -2.056077922865e-04
   100    1.220964293661e-11
   101   -3.443029478394e-13
   102    3.614123397659e-05
   103    1.621365361250e-04
   104   -3.990498808677e-11
   105   -2.792784643519e-16
   106   -1.512359856372e-04
   107    9.614290179225e-17
   108   -1.018690642846e-04
   109   -2.002043773378e-04
   110    2.762262670896e-04
   111   -1.036630038796e-04
   112   -6.242676223125e-12
   113   -2.120249183968e-16
   114   -1.515228288191e-04
   115   -6.961223619602e-04
   116   -5.389158779019e-03
   117   -2.688300258735e-02
   118   -9.229978488559e-02
   119   -2.180327822036e-01
   120   -7.955650340591e-02
   121   -2.919183345970e-01
   122   -5.282274816778e-05
   123    2.926330038512e-15
   124   -4.669357318764e-05
   125   -1.340015401056e-03
   126    3.100653769885e-04
   127   -1.697027402383e-15
   128   -1.205666918087e-04
   129   -5.888451693477e-04
   130    7.885376148204e-05
   131    5.458395681775e-15
   132   -1.466817120608e-04
   133    7.031425785908e-04
   134   -8.289910364276e-04
   135   -3.857750577914e-14
   136    4.496401816769e-05
   137    8.626491456613e-05
   138   -1.583721984571e-05
   139    3.621063842209e-13
   140   -9.669522218540e-05
   141   -1.063031184948e-04
   142   -1.364527028542e-04
   143    3.237309193210e-16
   144   -7.472510472928e-05
   145   -4.462531595699e-16
   146   -2.713981854634e-04
   147   -3.927925117902e-04
   148    2.371971789583e-04
   149    4.675047679839e-04
   150    2.354479110789e-04
   151    1.950966762213e-16
   152   -1.292778251089e-04
   153   -3.409443935156e-04
   154   -2.639494749841e-03
   155   -1.316658447895e-02
   156   -4.520625282834e-02
   157   -1.067825575266e-01
   158   -3.891272507519e-02
   159   -1.429644578777e-01
   160    1.698935862999e-05
   161   -7.988862518095e-16
   162    3.915425404740e-05
   163   -9.389739313163e-04
   164    9.672060595654e-05
   165    3.000644464104e-15
   166    4.798462774633e-04
   167    1.023969215025e-04
   168    1.469722972557e-05
   169   -4.756765915536e-15
   170   -1.807137305249e-04
   171    1.410580498475e-03
   172   -3.562915708434e-04
   173    4.947272922415e-14
   174   -6.775423388940e-04
   175    1.941515637794e-04
   176   -6.371554848716e-05
   177   -4.119711598355e-13
   178    4.131702311299e-04
   179   -2.459677849300e-04
   180    2.592898000405e-05
   181   -2.335684415651e-16
   182    6.599290481875e-05
   183    6.041175215713e-17
   184   -1.461736997851e-04
   185   -2.582228085876e-04
   186    2.482865917826e-04
   187    2.589776770694e-04
   188    1.296237103827e-04
   189    3.066904260810e-17
   190    1.118196226591e-04
   191    9.919779257801e-06
   192    7.674175242218e-05
   193    3.832819807803e-04
   194    1.314667225101e-03
   195    3.123735831111e-03
   196    1.284364342279e-03
   197    4.141656418394e-03
   198   -1.085789630545e-11
   199   -1.241764096351e-16
   200    3.671726571493e-05
   201   -5.340551389351e-04
   202   -1.020076677950e-10
   203    5.603031414941e-16
   204    2.465712603811e-04
   205    3.550317131322e-04