[Molden Format]
[Atoms] (Angs)
  H      1    1     -2.14003202      0.00000000      0.38146042
  C      2    6     -1.21205832      0.00000000     -0.17180643
  C      3    6     -1.20429565      0.00000000     -1.56369320
  H      4    1     -2.14371879      0.00000000     -2.09923439
  C      5    6     -0.00000000      0.00000000     -2.26269040
  H      6    1     -0.00000000      0.00000000     -3.34354440
  C      7    6      1.20429565      0.00000000     -1.56369320
  H      8    1      2.14371879      0.00000000     -2.09923439
  C      9    6      1.21205832     -0.00000000     -0.17180643
  H     10    1      2.14003202     -0.00000000      0.38146042
  C     11    6      0.00000000     -0.00000000      0.51110416
 Cl     12   17      0.00000000     -0.00000000      2.24203561
[GTO]
1    0
S    3    1.000000
   3.38650000E+01    2.54938000E-02 
   5.09479000E+00    1.90373000E-01 
   1.15879000E+00    8.52161000E-01 
S    1    1.000000
   3.25840000E-01    1.00000000E+00 
S    1    1.000000
   1.02741000E-01    1.00000000E+00 
S    1    1.000000
   3.60000000E-02    1.00000000E+00 
P    1    1.000000
   7.50000000E-01    1.00000000E+00 

2    0
S    1    1.000000
   4.56324000E+03    1.96665000E-03 
S    1    1.000000
   6.82024000E+02    1.52306000E-02 
S    1    1.000000
   1.54973000E+02    7.61269000E-02 
S    1    1.000000
   4.44553000E+01    2.60801000E-01 
S    1    1.000000
   1.30290000E+01    6.16462000E-01 
S    1    1.000000
   1.82773000E+00    2.21006000E-01 
SP   3    1.000000
   2.09642000E+01    1.14660000E-01   4.02487000E-02 
   4.80331000E+00    9.19999000E-01   2.37594000E-01 
   1.45933000E+00   -3.03068000E-03   8.15854000E-01 
SP   1    1.000000
   4.83456000E-01    1.00000000E+00   1.00000000E+00 
SP   1    1.000000
   1.45585000E-01    1.00000000E+00   1.00000000E+00 
SP   1    1.000000
   4.38000000E-02    1.00000000E+00   1.00000000E+00 
SP   1    1.000000
   1.31927711E-02    1.00000000E+00   1.00000000E+00 
D    1    1.000000
   6.26000000E-01    1.00000000E+00 

3    0
S    1    1.000000
   4.56324000E+03    1.96665000E-03 
S    1    1.000000
   6.82024000E+02    1.52306000E-02 
S    1    1.000000
   1.54973000E+02    7.61269000E-02 
S    1    1.000000
   4.44553000E+01    2.60801000E-01 
S    1    1.000000
   1.30290000E+01    6.16462000E-01 
S    1    1.000000
   1.82773000E+00    2.21006000E-01 
SP   3    1.000000
   2.09642000E+01    1.14660000E-01   4.02487000E-02 
   4.80331000E+00    9.19999000E-01   2.37594000E-01 
   1.45933000E+00   -3.03068000E-03   8.15854000E-01 
SP   1    1.000000
   4.83456000E-01    1.00000000E+00   1.00000000E+00 
SP   1    1.000000
   1.45585000E-01    1.00000000E+00   1.00000000E+00 
SP   1    1.000000
   4.38000000E-02    1.00000000E+00   1.00000000E+00 
SP   1    1.000000
   1.31927711E-02    1.00000000E+00   1.00000000E+00 
D    1    1.000000
   6.26000000E-01    1.00000000E+00 

4    0
S    3    1.000000
   3.38650000E+01    2.54938000E-02 
   5.09479000E+00    1.90373000E-01 
   1.15879000E+00    8.52161000E-01 
S    1    1.000000
   3.25840000E-01    1.00000000E+00 
S    1    1.000000
   1.02741000E-01    1.00000000E+00 
S    1    1.000000
   3.60000000E-02    1.00000000E+00 
P    1    1.000000
   7.50000000E-01    1.00000000E+00 

5    0
S    1    1.000000
   4.56324000E+03    1.96665000E-03 
S    1    1.000000
   6.82024000E+02    1.52306000E-02 
S    1    1.000000
   1.54973000E+02    7.61269000E-02 
S    1    1.000000
   4.44553000E+01    2.60801000E-01 
S    1    1.000000
   1.30290000E+01    6.16462000E-01 
S    1    1.000000
   1.82773000E+00    2.21006000E-01 
SP   3    1.000000
   2.09642000E+01    1.14660000E-01   4.02487000E-02 
   4.80331000E+00    9.19999000E-01   2.37594000E-01 
   1.45933000E+00   -3.03068000E-03   8.15854000E-01 
SP   1    1.000000
   4.83456000E-01    1.00000000E+00   1.00000000E+00 
SP   1    1.000000
   1.45585000E-01    1.00000000E+00   1.00000000E+00 
SP   1    1.000000
   4.38000000E-02    1.00000000E+00   1.00000000E+00 
SP   1    1.000000
   1.31927711E-02    1.00000000E+00   1.00000000E+00 
D    1    1.000000
   6.26000000E-01    1.00000000E+00 

6    0
S    3    1.000000
   3.38650000E+01    2.54938000E-02 
   5.09479000E+00    1.90373000E-01 
   1.15879000E+00    8.52161000E-01 
S    1    1.000000
   3.25840000E-01    1.00000000E+00 
S    1    1.000000
   1.02741000E-01    1.00000000E+00 
S    1    1.000000
   3.60000000E-02    1.00000000E+00 
P    1    1.000000
   7.50000000E-01    1.00000000E+00 

7    0
S    1    1.000000
   4.56324000E+03    1.96665000E-03 
S    1    1.000000
   6.82024000E+02    1.52306000E-02 
S    1    1.000000
   1.54973000E+02    7.61269000E-02 
S    1    1.000000
   4.44553000E+01    2.60801000E-01 
S    1    1.000000
   1.30290000E+01    6.16462000E-01 
S    1    1.000000
   1.82773000E+00    2.21006000E-01 
SP   3    1.000000
   2.09642000E+01    1.14660000E-01   4.02487000E-02 
   4.80331000E+00    9.19999000E-01   2.37594000E-01 
   1.45933000E+00   -3.03068000E-03   8.15854000E-01 
SP   1    1.000000
   4.83456000E-01    1.00000000E+00   1.00000000E+00 
SP   1    1.000000
   1.45585000E-01    1.00000000E+00   1.00000000E+00 
SP   1    1.000000
   4.38000000E-02    1.00000000E+00   1.00000000E+00 
SP   1    1.000000
   1.31927711E-02    1.00000000E+00   1.00000000E+00 
D    1    1.000000
   6.26000000E-01    1.00000000E+00 

8    0
S    3    1.000000
   3.38650000E+01    2.54938000E-02 
   5.09479000E+00    1.90373000E-01 
   1.15879000E+00    8.52161000E-01 
S    1    1.000000
   3.25840000E-01    1.00000000E+00 
S    1    1.000000
   1.02741000E-01    1.00000000E+00 
S    1    1.000000
   3.60000000E-02    1.00000000E+00 
P    1    1.000000
   7.50000000E-01    1.00000000E+00 

9    0
S    1    1.000000
   4.56324000E+03    1.96665000E-03 
S    1    1.000000
   6.82024000E+02    1.52306000E-02 
S    1    1.000000
   1.54973000E+02    7.61269000E-02 
S    1    1.000000
   4.44553000E+01    2.60801000E-01 
S    1    1.000000
   1.30290000E+01    6.16462000E-01 
S    1    1.000000
   1.82773000E+00    2.21006000E-01 
SP   3    1.000000
   2.09642000E+01    1.14660000E-01   4.02487000E-02 
   4.80331000E+00    9.19999000E-01   2.37594000E-01 
   1.45933000E+00   -3.03068000E-03   8.15854000E-01 
SP   1    1.000000
   4.83456000E-01    1.00000000E+00   1.00000000E+00 
SP   1    1.000000
   1.45585000E-01    1.00000000E+00   1.00000000E+00 
SP   1    1.000000
   4.38000000E-02    1.00000000E+00   1.00000000E+00 
SP   1    1.000000
   1.31927711E-02    1.00000000E+00   1.00000000E+00 
D    1    1.000000
   6.26000000E-01    1.00000000E+00 

10    0
S    3    1.000000
   3.38650000E+01    2.54938000E-02 
   5.09479000E+00    1.90373000E-01 
   1.15879000E+00    8.52161000E-01 
S    1    1.000000
   3.25840000E-01    1.00000000E+00 
S    1    1.000000
   1.02741000E-01    1.00000000E+00 
S    1    1.000000
   3.60000000E-02    1.00000000E+00 
P    1    1.000000
   7.50000000E-01    1.00000000E+00 

11    0
S    1    1.000000
   4.56324000E+03    1.96665000E-03 
S    1    1.000000
   6.82024000E+02    1.52306000E-02 
S    1    1.000000
   1.54973000E+02    7.61269000E-02 
S    1    1.000000
   4.44553000E+01    2.60801000E-01 
S    1    1.000000
   1.30290000E+01    6.16462000E-01 
S    1    1.000000
   1.82773000E+00    2.21006000E-01 
SP   3    1.000000
   2.09642000E+01    1.14660000E-01   4.02487000E-02 
   4.80331000E+00    9.19999000E-01   2.37594000E-01 
   1.45933000E+00   -3.03068000E-03   8.15854000E-01 
SP   1    1.000000
   4.83456000E-01    1.00000000E+00   1.00000000E+00 
SP   1    1.000000
   1.45585000E-01    1.00000000E+00   1.00000000E+00 
SP   1    1.000000
   4.38000000E-02    1.00000000E+00   1.00000000E+00 
SP   1    1.000000
   1.31927711E-02    1.00000000E+00   1.00000000E+00 
D    1    1.000000
   6.26000000E-01    1.00000000E+00 

12    0
S    6    1.000000
   1.05819000E+05    7.38000000E-04 
   1.58720000E+04    5.71800000E-03 
   3.61965000E+03    2.94950000E-02 
   1.03080000E+03    1.17286000E-01 
   3.39908000E+02    3.62949000E-01 
   1.24538000E+02    5.84149000E-01 
S    3    1.000000
   1.24538000E+02    1.34177000E-01 
   4.95135000E+01    6.24250000E-01 
   2.08056000E+01    2.91756000E-01 
S    1    1.000000
   6.58346000E+00    1.00000000E+00 
S    1    1.000000
   2.56468000E+00    1.00000000E+00 
S    1    1.000000
   5.59763000E-01    1.00000000E+00 
S    1    1.000000
   1.83273000E-01    1.00000000E+00 
P    5    1.000000
   5.89776000E+02    2.39100000E-03 
   1.39849000E+02    1.85040000E-02 
   4.51413000E+01    8.13770000E-02 
   1.68733000E+01    2.21552000E-01 
   6.74110000E+00    7.72569000E-01 
P    2    1.000000
   6.74110000E+00   -1.57224400E+00 
   2.77152000E+00    9.92389000E-01 
P    1    1.000000
   1.02387000E+00    1.00000000E+00 
P    1    1.000000
   3.81368000E-01    1.00000000E+00 
P    1    1.000000
   1.09437000E-01    1.00000000E+00 
SP   1    1.000000
   4.83000000E-02    1.00000000E+00   1.00000000E+00 
SP   1    1.000000
   1.45481928E-02    1.00000000E+00   1.00000000E+00 
D    1    1.000000
   7.50000000E-01    1.00000000E+00 

[MO]
Sym=X
Ene= -0.002240
Spin=Alpha
Occup=1
     1    2.248601588430e-04
     2    3.196401360369e-04
     3   -2.936674609148e-06
     4   -2.485833454534e-04
     5    2.158276339260e-04
     6   -1.093613803158e-17
     7   -1.198648524907e-04
     8    7.259454800568e-04
     9    5.620050622197e-03
    10    2.803470987120e-02
    11    9.625464733155e-02
    12    2.273758737878e-01
    13    8.303324652700e-02
    14    3.044184197287e-01
    15    8.720435816496e-06
    16    1.366076127204e-15
    17    5.447137538791e-05
    18    1.270578200748e-03
    19    9.466606531631e-05
    20   -3.185007615571e-15
    21   -3.980031250190e-05
    22    1.214768177427e-03
    23    4.999336812235e-04
    24    3.982837643534e-15
    25   -4.257281504616e-04
    26   -1.618321335303e-03
    27   -8.036640713737e-05
    28   -4.855520914822e-14
    29    7.746497983056e-04
    30   -1.926502842360e-04
    31   -9.849661484237e-05
    32    6.284358180719e-13
    33   -1.869411029035e-04
    34    7.471331757409e-05
    35    8.646797371840e-05
    36    5.924671167097e-17
    37    8.044336149589e-05
    38    1.606548961018e-17
    39    1.375997775408e-04
    40    1.065261632934e-03
    41    5.313834198619e-03
    42    1.824455671218e-02
    43    4.309355102853e-02
    44    1.568227500280e-02
    45    5.771319112643e-02
    46   -3.456015441877e-05
    47   -6.994921398548e-16
    48    1.150752539485e-04
    49    3.638672961513e-04
    50   -9.954719086801e-05
    51   -1.552264944145e-16
    52    5.583108722305e-04
    53   -6.853229778361e-04
    54   -2.973795080927e-04
    55   -5.619012450844e-15
    56   -4.638765961910e-04
    57   -3.054668467160e-04
    58   -9.268940598382e-04
    59    3.264928999070e-14
    60    2.836839427680e-04
    61   -9.854122112832e-05
    62    1.717695553223e-05
    63   -5.206902421155e-13
    64   -2.377469307430e-05
    65    2.683217330859e-04
    66    7.303804152016e-05
    67   -1.277961672878e-16
    68   -1.253939671309e-04
    69   -6.031920886814e-16
    70    9.915834333256e-05
    71    1.493110684456e-04
    72   -2.755510426030e-04
    73   -3.820846001013e-04
    74    4.298153216175e-05
    75   -5.900042167800e-16
    76    7.504638398310e-05
    77   -3.718398066662e-04
    78   -2.878637525250e-03
    79   -1.435992391591e-02
    80   -4.930264858805e-02
    81   -1.164743951527e-01
    82   -4.260661580950e-02
    83   -1.559266859367e-01
    84    5.265381856687e-12
    85    1.293195083022e-17
    86   -4.043077708068e-06
    87   -2.614478009404e-04
    88    6.177517814449e-11
    89   -2.307384785242e-15
    90    1.403036205553e-04
    91    4.053556921381e-05
    92   -3.792086024781e-11
    93    2.212960918047e-16
    94    1.668085554857e-04
    95    3.440141906608e-03
    96    9.666820504096e-11
    97   -2.998236647175e-14
    98    7.284103716693e-04
    99    1.433966806792e-04
   100   -1.077657355385e-11
   101    5.007059131492e-13
   102    7.770022905149e-05
   103   -3.822119036732e-05
   104    3.599369057359e-11
   105    6.704504306522e-17
   106   -3.494782445999e-05
   107   -1.217869385573e-16
   108   -1.375127626173e-04
   109   -8.196334454064e-05
   110    2.987315126519e-06
   111    2.904861162130e-04
   112    5.659071439430e-12
   113    2.687183346091e-17
   114   -7.328884489803e-05
   115    1.375998665630e-04
   116    1.065262322095e-03
   117    5.313837636539e-03
   118    1.824456851530e-02
   119    4.309357891513e-02
   120    1.568228519241e-02
   121    5.771322844275e-02
   122    3.456015737476e-05
   123   -1.608605945417e-15
   124    1.150752704249e-04
   125    3.638674527422e-04
   126    9.954720157484e-05
   127   -1.088866633547e-16
   128    5.583109511635e-04
   129   -6.853228894992e-04
   130    2.973794846654e-04
   131   -5.895931171399e-15
   132   -4.638766241668e-04
   133   -3.054670804460e-04
   134    9.268941888860e-04
   135    3.341281249095e-14
   136    2.836840342592e-04
   137   -9.854123767767e-05
   138   -1.717693053352e-05
   139   -5.257383268606e-13
   140   -2.377470511922e-05
   141    2.683217838871e-04
   142   -7.303804387636e-05
   143    1.841381490907e-16
   144   -1.253939780773e-04
   145    4.746011853537e-16
   146    9.915837768603e-05
   147    1.493111092033e-04
   148   -2.755510628134e-04
   149   -3.820846416726e-04
   150   -4.298155820140e-05
   151   -3.594968831748e-16
   152    7.504640667237e-05
   153    7.259456194133e-04
   154    5.620051701037e-03
   155    2.803471525293e-02
   156    9.625466580876e-02
   157    2.273759174396e-01
   158    8.303326247951e-02
   159    3.044184781547e-01
   160   -8.720452650872e-06
   161    9.051081584286e-16
   162    5.447137966512e-05
   163    1.270578420395e-03
   164   -9.466603767365e-05
   165   -2.788666902132e-15
   166   -3.980039054814e-05
   167    1.214768355611e-03
   168   -4.999337666477e-04
   169    4.714049021908e-15
   170   -4.257281154721e-04
   171   -1.618321315019e-03
   172    8.036634058053e-05
   173   -5.014460836676e-14
   174    7.746498282943e-04
   175   -1.926502803312e-04
   176    9.849660192297e-05
   177    6.341101564432e-13
   178   -1.869410874919e-04
   179    7.471336900766e-05
   180   -8.646796814125e-05
   181   -1.757328556688e-18
   182    8.044335740390e-05
   183   -1.646395376708e-17
   184    2.248602090650e-04
   185    3.196401912656e-04
   186   -2.936667495998e-06
   187   -2.485833344845e-04
   188   -2.158276686183e-04
   189   -1.596339842621e-16
   190   -1.198648807934e-04
   191   -1.503024512476e-05
   192   -1.164060028753e-04
   193   -5.805288730432e-04
   194   -1.994864693420e-03
   195   -4.706252640013e-03
   196   -1.833489541080e-03
   197   -6.386858124682e-03
   198    1.017680405312e-11
   199   -2.801495924081e-16
   200   -4.946465134882e-05
   201    7.614924142172e-04
   202    9.430802605832e-11
   203   -1.123178182363e-17
   204   -1.515402422727e-04
   205   -9.618618434152e-04
   206   -7.384273220111e-11
   207   -8.085670084574e-15
   208    6.807596238214e-04
   209    8.089335039532e-04
   210   -1.976346343995e-11
   211    5.938345535257e-14
   212   -1.593269710276e-03
   213   -5.844244088936e-05
   214    5.731617453703e-12
   215   -7.649948759494e-13
   216    2.650261257132e-04
   217   -1.313443564382e-04
   218   -4.669443012606e-11
   219    2.851802174385e-16
   220    1.470891930945e-04
   221    1.880029046428e-16
   222   -9.357944705713e-07
   223   -4.422807174906e-06
   224    1.935253242483e-05
   225   -2.747468412123e-06
   226    1.674077836042e-05
   227   -2.769391954710e-04
   228    1.728884083865e-12
   229   -1.465745880075e-15
   230   -3.114355587725e-05
   231    9.971658227951e-13
   232   -5.325353034814e-16
   233   -4.837217910352e-06
   234   -3.622395465394e-12
   235   -3.939795045372e-16
   236    5.323738384261e-05
   237    6.486011607693e-12
   238    1.490855662479e-15
   239    5.883239144813e-05
   240    2.164596511380e-13
   241   -4.021084322910e-15
   242    1.634372026944e-04
   243    8.604859965673e-04
   244    9.824996141284e-13
   245   -3.077141947944e-15
   246   -2.217504405128e-04
   247    6.297098301372e-04
   248   -2.987399410827e-12
   249    5.598539255405e-14
   250   -2.024426362672e-04
   251    6.985904373578e-05
   252   -2.784733815148e-12
   253   -3.973152073365e-16
   254   -7.608859090960e-06
   255    8.061425565414e-17
Sym=X
Ene= -0.010527
Spin=Alpha
Occup=1
     1   -8.612971470749e-05
     2   -2.522881115491e-04
     3   -1.150877171980e-04
     4    8.222155616710e-05
     5   -9.114657474735e-05
     6    1.592676369948e-16
     7    6.221363972300e-05
     8   -2.839000766280e-04
     9   -2.197912805750e-03
    10   -1.096363673722e-02
    11   -3.764390880110e-02
    12   -8.891203681975e-02
    13   -3.243288111810e-02
    14   -1.190888490051e-01
    15   -3.243810162767e-06
    16    4.506532527719e-16
    17   -6.446724149507e-05
    18   -4.928855869449e-04
    19   -9.272609838409e-05
    20   -1.379824703154e-15
    21    1.143558515757e-04
    22   -1.423913635476e-03
    23   -7.888409173932e-04
    24    6.113955127777e-15
    25    3.949520760582e-04
    26    7.332166688060e-04
    27   -5.078316945460e-06
    28   -2.328697194203e-14
    29   -4.286484634965e-04
    30    1.293227413075e-04
    31    5.343327248565e-05
    32   -9.030791260590e-14
    33    3.495462787950e-04
    34   -5.429293314782e-05
    35    4.851616241559e-06
    36   -7.080968835972e-16
    37   -1.747107821553e-05
    38    4.237607881004e-16
    39    1.202433379802e-04
    40    9.309612982696e-04
    41    4.643568334371e-03
    42    1.594566771490e-02
    43    3.765353296192e-02
    44    1.381291389771e-02
    45    5.051047053687e-02
    46   -1.048099501094e-04
    47    4.537722865453e-17
    48    1.839639178245e-05
    49   -3.729483988180e-04
    50   -4.283089676605e-04
    51    1.329980395075e-15
    52    1.657869134873e-04
    53    1.742837419976e-03
    54    1.017809943481e-03
    55   -3.598507438302e-15
    56    3.616090098939e-04
    57    2.636874053779e-05
    58    6.014979755063e-04
    59    1.910739804251e-14
    60    1.532142851452e-04
    61    5.507954151983e-05
    62   -1.701790406522e-06
    63    5.700513531344e-14
    64   -1.639602633714e-04
    65    6.910471023355e-05
    66    2.591755689044e-04
    67   -2.228055353755e-16
    68   -4.425906418428e-05
    69   -1.725037667185e-16
    70    6.450920860367e-06
    71    5.610536570611e-05
    72    4.616767581863e-04
    73    3.672857083297e-04
    74   -4.893451588219e-05
    75    5.181550627911e-16
    76    6.837912299395e-06
    77   -1.020057608554e-03
    78   -7.896992343832e-03
    79   -3.939285523372e-02
    80   -1.352523068233e-01
    81   -3.194935086422e-01
    82   -1.166783226050e-01
    83   -4.277983462690e-01
    84   -1.886233283804e-12
    85    1.196620857306e-15
    86    6.671088875529e-05
    87   -1.414545242849e-03
    88   -2.232771626847e-11
    89   -5.432587052427e-16
    90   -1.956378757742e-04
    91   -2.340678988741e-03
    92    1.560895828625e-11
    93    4.975841896929e-15
    94   -1.140844114232e-03
    95   -1.476710577797e-03
    96   -3.604281598267e-11
    97   -1.739512334794e-14
    98   -4.309898727190e-04
    99   -1.039523640132e-04
   100    7.272939305166e-12
   101   -7.030067333204e-14
   102    1.436894228572e-04
   103   -2.699546593601e-05
   104   -1.294844871414e-11
   105    1.777973881631e-16
   106   -1.584893340815e-04
   107    1.120828868994e-16
   108   -3.840028470203e-04
   109   -6.158027983979e-04
   110   -1.711102856095e-04
   111   -7.904163623974e-05
   112   -2.010018562022e-12
   113    2.281340633710e-16
   114   -3.223089578383e-04
   115    1.202433060202e-04
   116    9.309610508488e-04
   117    4.643567100103e-03
   118    1.594566347738e-02
   119    3.765352295019e-02
   120    1.381291023953e-02
   121    5.051045713966e-02
   122    1.048099492507e-04
   123   -1.331301090770e-16
   124    1.839638574177e-05
   125   -3.729484552917e-04
   126    4.283089638947e-04
   127    3.453203069459e-16
   128    1.657868852270e-04
   129    1.742837384709e-03
   130   -1.017809929839e-03
   131   -1.310908101228e-16
   132    3.616090156097e-04
   133    2.636869859888e-05
   134   -6.014979449404e-04
   135    1.074000628826e-14
   136    1.532142158258e-04
   137    5.507953817724e-05
   138    1.701778980781e-06
   139    1.015047324635e-13
   140   -1.639602572879e-04
   141    6.910469206989e-05
   142   -2.591755680518e-04
   143    4.508092293886e-17
   144   -4.425906028948e-05
   145    1.704804167664e-16
   146    6.450908473585e-06
   147    5.610535106006e-05
   148    4.616767525987e-04
   149    3.672856773253e-04
   150    4.893452518820e-05
   151    2.513897911258e-16
   152    6.837904162232e-06
   153   -2.839001265734e-04
   154   -2.197913192402e-03
   155   -1.096363866602e-02
   156   -3.764391542327e-02
   157   -8.891205246440e-02
   158   -3.243288683544e-02
   159   -1.190888699448e-01
   160    3.243815988432e-06
   161    1.284414361997e-16
   162   -6.446724317055e-05
   163   -4.928856656688e-04
   164    9.272608825902e-05
   165   -2.167285441235e-16
   166    1.143558795783e-04
   167   -1.423913697695e-03
   168    7.888409439521e-04
   169    2.992844755006e-15
   170    3.949520581217e-04
   171    7.332168730592e-04
   172    5.078254407953e-06
   173   -1.605679233177e-14
   174   -4.286484885638e-04
   175    1.293227477161e-04
   176   -5.343326604572e-05
   177   -1.340171246195e-13
   178    3.495462655167e-04
   179   -5.429295166631e-05
   180   -4.851618240639e-06
   181   -3.480313306665e-18
   182   -1.747107672344e-05
   183   -3.681606983470e-16
   184   -8.612973267967e-05
   185   -2.522881312491e-04
   186   -1.150877075468e-04
   187    8.222159397110e-05
   188    9.114658720091e-05
   189   -1.373320791395e-16
   190    6.221364986042e-05
   191    5.267187996188e-06
   192    4.075072178179e-05
   193    2.035402726064e-04
   194    6.982388631099e-04
   195    1.658582215429e-03
   196    6.944870247431e-04
   197    2.212724959598e-03
   198   -3.638425474729e-12
   199   -1.244911818449e-15
   200    2.676258825280e-05
   201   -4.204066717343e-04
   202   -3.382086666844e-11
   203    2.227104624898e-15
   204    1.062470199618e-04
   205    1.606237743905e-03
   206    2.624629024216e-11
   207   -7.478088256754e-15
   208   -9.214426168788e-04
   209   -4.090620747830e-04
   210   -2.170817066851e-11
   211    2.831686228651e-14
   212    1.275474705352e-03
   213    1.231784461519e-05
   214   -5.714251591962e-12
   215    1.279221150705e-13
   216   -5.268878455122e-04
   217    6.917933022673e-05
   218    1.669410518958e-11
   219   -1.639979311584e-16
   220   -6.530414241285e-05
   221   -1.888632792273e-17
   222   -5.279436510121e-08
   223    9.280325119349e-07
   224   -8.651289304138e-06
   225    1.433077074218e-05
   226   -3.690458546584e-05
   227    2.487474665774e-04
   228   -6.588452420832e-13
   229    7.124190297435e-16
   230   -8.104107239067e-07
   231   -3.779156715033e-13
   232    1.605837253875e-15
   233   -3.353574047963e-06
   234    1.363777567364e-12
   235   -1.659189629379e-15
   236   -1.650910883842e-06
   237   -2.385560188581e-12
   238   -5.970454708374e-16
   239   -2.861868123452e-05
   240    6.125772372625e-13
   241    3.260926489573e-15
   242   -1.205497852638e-04
   243   -8.003716606813e-04
   244    4.253046427831e-13
   245   -1.116907261985e-14
   246    2.006951112911e-04
   247   -3.619314831276e-04
   248    2.831549010793e-12
   249   -4.102095137831e-15
   250    1.771749122414e-04
   251   -1.857998781275e-05
   252    1.065328114889e-12
   253   -2.235671375090e-16
   254    2.184322824656e-06
   255   -2.399665247493e-16
Sym=X
Ene= -0.246773
Spin=Alpha
Occup=1
     1    1.474090510156e-05
     2   -5.895947258862e-06
     3    1.103127077781e-04
     4    1.035733269069e-04
     5    5.111345470604e-06
     6    1.428219249331e-16
     7    3.492131224494e-05
     8    8.926724997151e-05
     9    6.911581096894e-04
    10    3.447252458044e-03
    11    1.183824598449e-02
    12    2.794788066029e-02
    13    1.021399284840e-02
    14    3.750343695393e-02
    15   -3.782727388936e-06
    16   -3.030391070368e-16
    17    9.251999189607e-05
    18   -7.991408100821e-05
    19    5.833192240975e-05
    20    9.720540543080e-16
    21    4.199192847449e-04
    22    1.996751489713e-04
    23    4.322472460185e-05
    24   -3.215560074212e-15
    25   -2.722685084169e-04
    26   -8.375244577705e-04
    27    3.640592440877e-06
    28    6.617311547225e-15
    29   -1.133761086434e-05
    30   -2.593634993884e-05
    31   -7.821912030638e-05
    32   -6.397733070385e-14
    33   -3.933281958801e-05
    34   -2.057191545883e-04
    35    3.284513554241e-05
    36    1.097293676674e-16
    37    1.135682785865e-04
    38    2.250772686623e-16
    39   -7.792952572216e-04
    40   -6.033033561508e-03
    41   -3.009511201357e-02
    42   -1.033277677643e-01
    43   -2.440933672510e-01
    44   -8.917456947086e-02
    45   -3.267948511873e-01
    46    3.823161648205e-05
    47    8.165231723936e-16
    48    2.606069609087e-06
    49   -1.054812017115e-03
    50   -1.679579300374e-05
    51   -1.947930734426e-15
    52   -3.044383980798e-05
    53   -9.295921205899e-04
    54   -3.217684983199e-04
    55    3.454016498519e-15
    56   -1.138056969475e-04
    57    9.245742984354e-04
    58    1.882285798856e-04
    59   -1.407027938456e-14
    60   -3.061560358428e-05
    61    5.727709389423e-05
    62    1.326757566681e-04
    63    1.286075550796e-13
    64    3.264646253159e-05
    65   -9.841076937624e-05
    66    2.652697170336e-05
    67   -6.954594517779e-16
    68   -8.116713384255e-05
    69    4.940666432949e-16
    70   -2.781159269082e-04
    71   -3.195771139267e-04
    72   -2.177650532246e-05
    73    1.006760634224e-04
    74   -1.951960474223e-04
    75   -1.287146792273e-16
    76   -1.190201833036e-04
    77   -6.800129416161e-12
    78   -5.264413602406e-11
    79   -2.626112706893e-10
    80   -9.015857339137e-10
    81   -2.129906973479e-09
    82   -7.729633767894e-10
    83   -2.849467054890e-09
    84    1.423384753096e-04
    85    4.959052407615e-16
    86   -1.833031434243e-12
    87   -3.646027979257e-11
    88    7.432225598660e-04
    89   -4.546413363788e-16
    90   -2.219191015795e-11
    91   -1.326422039395e-11
    92   -3.753969840551e-04
    93   -4.034840335646e-16
    94   -6.590194879824e-12
    95   -2.242153651181e-10
    96    4.522420534662e-04
    97    1.464648482161e-14
    98   -4.771837086892e-11
    99   -1.268087507985e-11
   100   -1.353419159177e-04
   101   -1.349401217408e-13
   102    1.115064500475e-12
   103    6.807901565905e-12
   104    4.231541635589e-04
   105    2.117434007770e-16
   106   -6.411107399324e-12
   107    6.536055068780e-16
   108   -4.213345620073e-12
   109   -1.220541847589e-11
   110    7.643122367625e-12
   111   -1.417657511913e-11
   112    6.330517874548e-05
   113    5.511996212472e-16
   114   -7.007946766257e-12
   115    7.792952011469e-04
   116    6.033033127399e-03
   117    3.009510984808e-02
   118    1.033277603294e-01
   119    2.440933496879e-01
   120    8.917456306602e-02
   121    3.267948276744e-01
   122    3.823161229752e-05
   123   -2.375450239871e-15
   124   -2.606077980740e-06
   125    1.054811886962e-03
   126   -1.679576778200e-05
   127    1.407045474230e-15
   128    3.044380540647e-05
   129    9.295921518825e-04
   130   -3.217685282885e-04
   131   -5.819294495476e-16
   132    1.138057190303e-04
   133   -9.245742245543e-04
   134    1.882284595540e-04
   135   -7.826848303499e-15
   136    3.061559797183e-05
   137   -5.727708151403e-05
   138    1.326757560443e-04
   139    1.080445755667e-13
   140   -3.264647247998e-05
   141    9.841074825467e-05
   142    2.652696053669e-05
   143   -1.071321107310e-15
   144    8.116713439015e-05
   145   -3.143006389650e-16
   146    2.781159032424e-04
   147    3.195770821578e-04
   148    2.177654725080e-05
   149   -1.006760022098e-04
   150   -1.951960267433e-04
   151    5.285964937636e-16
   152    1.190201698691e-04
   153   -8.926732126550e-05
   154   -6.911586616367e-04
   155   -3.447255211305e-03
   156   -1.183825543762e-02
   157   -2.794790299005e-02
   158   -1.021400099564e-02
   159   -3.750346685150e-02
   160   -3.782723744455e-06
   161    1.133553798823e-16
   162   -9.251999222870e-05
   163    7.991393497224e-05
   164    5.833193972296e-05
   165    3.271615160449e-16
   166   -4.199192426750e-04
   167   -1.996752396815e-04
   168    4.322476802332e-05
   169    1.264052770423e-15
   170    2.722685263019e-04
   171    8.375246615531e-04
   172    3.640555806181e-06
   173    2.920442698003e-16
   174    1.133750995025e-05
   175    2.593637630839e-05
   176   -7.821913078670e-05
   177   -4.479456990644e-14
   178    3.933286640640e-05
   179    2.057191317021e-04
   180    3.284514169089e-05
   181   -2.683615033234e-16
   182   -1.135682788814e-04
   183   -7.245927654729e-16
   184   -1.474093234528e-05
   185    5.895900254250e-06
   186   -1.103126908449e-04
   187   -1.035732887158e-04
   188    5.111368747610e-06
   189   -4.657459257464e-16
   190   -3.492129617565e-05
   191    8.192729268782e-13
   192    6.343461597511e-12
   193    3.165699129107e-11
   194    1.086895791362e-10
   195    2.573090153349e-10
   196    1.032160873769e-10
   197    3.451287880370e-10
   198   -4.960492403060e-05
   199    3.886331733568e-16
   200    4.607468266107e-12
   201   -4.284570711447e-11
   202    1.153972965899e-04
   203    4.414374412204e-16
   204    1.795447594264e-11
   205    5.861901700684e-11