[Molden Format]
[Atoms] (Angs)
  H      1    1     -2.14003202      0.00000000      0.38146042
  C      2    6     -1.21205832      0.00000000     -0.17180643
  C      3    6     -1.20429565      0.00000000     -1.56369320
  H      4    1     -2.14371879      0.00000000     -2.09923439
  C      5    6     -0.00000000      0.00000000     -2.26269040
  H      6    1     -0.00000000      0.00000000     -3.34354440
  C      7    6      1.20429565      0.00000000     -1.56369320
  H      8    1      2.14371879      0.00000000     -2.09923439
  C      9    6      1.21205832     -0.00000000     -0.17180643
  H     10    1      2.14003202     -0.00000000      0.38146042
  C     11    6      0.00000000     -0.00000000      0.51110416
 Cl     12   17      0.00000000     -0.00000000      2.24203561
[GTO]
1    0
S    3    1.000000
   3.38650000E+01    2.54938000E-02 
   5.09479000E+00    1.90373000E-01 
   1.15879000E+00    8.52161000E-01 
S    1    1.000000
   3.25840000E-01    1.00000000E+00 
S    1    1.000000
   1.02741000E-01    1.00000000E+00 
S    1    1.000000
   3.60000000E-02    1.00000000E+00 
P    1    1.000000
   7.50000000E-01    1.00000000E+00 

2    0
S    1    1.000000
   4.56324000E+03    1.96665000E-03 
S    1    1.000000
   6.82024000E+02    1.52306000E-02 
S    1    1.000000
   1.54973000E+02    7.61269000E-02 
S    1    1.000000
   4.44553000E+01    2.60801000E-01 
S    1    1.000000
   1.30290000E+01    6.16462000E-01 
S    1    1.000000
   1.82773000E+00    2.21006000E-01 
SP   3    1.000000
   2.09642000E+01    1.14660000E-01   4.02487000E-02 
   4.80331000E+00    9.19999000E-01   2.37594000E-01 
   1.45933000E+00   -3.03068000E-03   8.15854000E-01 
SP   1    1.000000
   4.83456000E-01    1.00000000E+00   1.00000000E+00 
SP   1    1.000000
   1.45585000E-01    1.00000000E+00   1.00000000E+00 
SP   1    1.000000
   4.38000000E-02    1.00000000E+00   1.00000000E+00 
SP   1    1.000000
   1.31927711E-02    1.00000000E+00   1.00000000E+00 
D    1    1.000000
   6.26000000E-01    1.00000000E+00 

3    0
S    1    1.000000
   4.56324000E+03    1.96665000E-03 
S    1    1.000000
   6.82024000E+02    1.52306000E-02 
S    1    1.000000
   1.54973000E+02    7.61269000E-02 
S    1    1.000000
   4.44553000E+01    2.60801000E-01 
S    1    1.000000
   1.30290000E+01    6.16462000E-01 
S    1    1.000000
   1.82773000E+00    2.21006000E-01 
SP   3    1.000000
   2.09642000E+01    1.14660000E-01   4.02487000E-02 
   4.80331000E+00    9.19999000E-01   2.37594000E-01 
   1.45933000E+00   -3.03068000E-03   8.15854000E-01 
SP   1    1.000000
   4.83456000E-01    1.00000000E+00   1.00000000E+00 
SP   1    1.000000
   1.45585000E-01    1.00000000E+00   1.00000000E+00 
SP   1    1.000000
   4.38000000E-02    1.00000000E+00   1.00000000E+00 
SP   1    1.000000
   1.31927711E-02    1.00000000E+00   1.00000000E+00 
D    1    1.000000
   6.26000000E-01    1.00000000E+00 

4    0
S    3    1.000000
   3.38650000E+01    2.54938000E-02 
   5.09479000E+00    1.90373000E-01 
   1.15879000E+00    8.52161000E-01 
S    1    1.000000
   3.25840000E-01    1.00000000E+00 
S    1    1.000000
   1.02741000E-01    1.00000000E+00 
S    1    1.000000
   3.60000000E-02    1.00000000E+00 
P    1    1.000000
   7.50000000E-01    1.00000000E+00 

5    0
S    1    1.000000
   4.56324000E+03    1.96665000E-03 
S    1    1.000000
   6.82024000E+02    1.52306000E-02 
S    1    1.000000
   1.54973000E+02    7.61269000E-02 
S    1    1.000000
   4.44553000E+01    2.60801000E-01 
S    1    1.000000
   1.30290000E+01    6.16462000E-01 
S    1    1.000000
   1.82773000E+00    2.21006000E-01 
SP   3    1.000000
   2.09642000E+01    1.14660000E-01   4.02487000E-02 
   4.80331000E+00    9.19999000E-01   2.37594000E-01 
   1.45933000E+00   -3.03068000E-03   8.15854000E-01 
SP   1    1.000000
   4.83456000E-01    1.00000000E+00   1.00000000E+00 
SP   1    1.000000
   1.45585000E-01    1.00000000E+00   1.00000000E+00 
SP   1    1.000000
   4.38000000E-02    1.00000000E+00   1.00000000E+00 
SP   1    1.000000
   1.31927711E-02    1.00000000E+00   1.00000000E+00 
D    1    1.000000
   6.26000000E-01    1.00000000E+00 

6    0
S    3    1.000000
   3.38650000E+01    2.54938000E-02 
   5.09479000E+00    1.90373000E-01 
   1.15879000E+00    8.52161000E-01 
S    1    1.000000
   3.25840000E-01    1.00000000E+00 
S    1    1.000000
   1.02741000E-01    1.00000000E+00 
S    1    1.000000
   3.60000000E-02    1.00000000E+00 
P    1    1.000000
   7.50000000E-01    1.00000000E+00 

7    0
S    1    1.000000
   4.56324000E+03    1.96665000E-03 
S    1    1.000000
   6.82024000E+02    1.52306000E-02 
S    1    1.000000
   1.54973000E+02    7.61269000E-02 
S    1    1.000000
   4.44553000E+01    2.60801000E-01 
S    1    1.000000
   1.30290000E+01    6.16462000E-01 
S    1    1.000000
   1.82773000E+00    2.21006000E-01 
SP   3    1.000000
   2.09642000E+01    1.14660000E-01   4.02487000E-02 
   4.80331000E+00    9.19999000E-01   2.37594000E-01 
   1.45933000E+00   -3.03068000E-03   8.15854000E-01 
SP   1    1.000000
   4.83456000E-01    1.00000000E+00   1.00000000E+00 
SP   1    1.000000
   1.45585000E-01    1.00000000E+00   1.00000000E+00 
SP   1    1.000000
   4.38000000E-02    1.00000000E+00   1.00000000E+00 
SP   1    1.000000
   1.31927711E-02    1.00000000E+00   1.00000000E+00 
D    1    1.000000
   6.26000000E-01    1.00000000E+00 

8    0
S    3    1.000000
   3.38650000E+01    2.54938000E-02 
   5.09479000E+00    1.90373000E-01 
   1.15879000E+00    8.52161000E-01 
S    1    1.000000
   3.25840000E-01    1.00000000E+00 
S    1    1.000000
   1.02741000E-01    1.00000000E+00 
S    1    1.000000
   3.60000000E-02    1.00000000E+00 
P    1    1.000000
   7.50000000E-01    1.00000000E+00 

9    0
S    1    1.000000
   4.56324000E+03    1.96665000E-03 
S    1    1.000000
   6.82024000E+02    1.52306000E-02 
S    1    1.000000
   1.54973000E+02    7.61269000E-02 
S    1    1.000000
   4.44553000E+01    2.60801000E-01 
S    1    1.000000
   1.30290000E+01    6.16462000E-01 
S    1    1.000000
   1.82773000E+00    2.21006000E-01 
SP   3    1.000000
   2.09642000E+01    1.14660000E-01   4.02487000E-02 
   4.80331000E+00    9.19999000E-01   2.37594000E-01 
   1.45933000E+00   -3.03068000E-03   8.15854000E-01 
SP   1    1.000000
   4.83456000E-01    1.00000000E+00   1.00000000E+00 
SP   1    1.000000
   1.45585000E-01    1.00000000E+00   1.00000000E+00 
SP   1    1.000000
   4.38000000E-02    1.00000000E+00   1.00000000E+00 
SP   1    1.000000
   1.31927711E-02    1.00000000E+00   1.00000000E+00 
D    1    1.000000
   6.26000000E-01    1.00000000E+00 

10    0
S    3    1.000000
   3.38650000E+01    2.54938000E-02 
   5.09479000E+00    1.90373000E-01 
   1.15879000E+00    8.52161000E-01 
S    1    1.000000
   3.25840000E-01    1.00000000E+00 
S    1    1.000000
   1.02741000E-01    1.00000000E+00 
S    1    1.000000
   3.60000000E-02    1.00000000E+00 
P    1    1.000000
   7.50000000E-01    1.00000000E+00 

11    0
S    1    1.000000
   4.56324000E+03    1.96665000E-03 
S    1    1.000000
   6.82024000E+02    1.52306000E-02 
S    1    1.000000
   1.54973000E+02    7.61269000E-02 
S    1    1.000000
   4.44553000E+01    2.60801000E-01 
S    1    1.000000
   1.30290000E+01    6.16462000E-01 
S    1    1.000000
   1.82773000E+00    2.21006000E-01 
SP   3    1.000000
   2.09642000E+01    1.14660000E-01   4.02487000E-02 
   4.80331000E+00    9.19999000E-01   2.37594000E-01 
   1.45933000E+00   -3.03068000E-03   8.15854000E-01 
SP   1    1.000000
   4.83456000E-01    1.00000000E+00   1.00000000E+00 
SP   1    1.000000
   1.45585000E-01    1.00000000E+00   1.00000000E+00 
SP   1    1.000000
   4.38000000E-02    1.00000000E+00   1.00000000E+00 
SP   1    1.000000
   1.31927711E-02    1.00000000E+00   1.00000000E+00 
D    1    1.000000
   6.26000000E-01    1.00000000E+00 

12    0
S    6    1.000000
   1.05819000E+05    7.38000000E-04 
   1.58720000E+04    5.71800000E-03 
   3.61965000E+03    2.94950000E-02 
   1.03080000E+03    1.17286000E-01 
   3.39908000E+02    3.62949000E-01 
   1.24538000E+02    5.84149000E-01 
S    3    1.000000
   1.24538000E+02    1.34177000E-01 
   4.95135000E+01    6.24250000E-01 
   2.08056000E+01    2.91756000E-01 
S    1    1.000000
   6.58346000E+00    1.00000000E+00 
S    1    1.000000
   2.56468000E+00    1.00000000E+00 
S    1    1.000000
   5.59763000E-01    1.00000000E+00 
S    1    1.000000
   1.83273000E-01    1.00000000E+00 
P    5    1.000000
   5.89776000E+02    2.39100000E-03 
   1.39849000E+02    1.85040000E-02 
   4.51413000E+01    8.13770000E-02 
   1.68733000E+01    2.21552000E-01 
   6.74110000E+00    7.72569000E-01 
P    2    1.000000
   6.74110000E+00   -1.57224400E+00 
   2.77152000E+00    9.92389000E-01 
P    1    1.000000
   1.02387000E+00    1.00000000E+00 
P    1    1.000000
   3.81368000E-01    1.00000000E+00 
P    1    1.000000
   1.09437000E-01    1.00000000E+00 
SP   1    1.000000
   4.83000000E-02    1.00000000E+00   1.00000000E+00 
SP   1    1.000000
   1.45481928E-02    1.00000000E+00   1.00000000E+00 
D    1    1.000000
   7.50000000E-01    1.00000000E+00 

[MO]
Sym=X
Ene= -0.009591
Spin=Alpha
Occup=1
     1    2.503786263957e-05
     2    6.787217731494e-06
     3    1.131426832349e-04
     4    1.055068949282e-04
     5    1.078238878695e-05
     6    1.469459240546e-16
     7    3.073348651608e-05
     8    1.138989501305e-04
     9    8.818474399011e-04
    10    4.398489551306e-03
    11    1.510417962265e-02
    12    3.566323915733e-02
    13    1.303352851170e-02
    14    4.783182312895e-02
    15   -1.517206484139e-07
    16   -2.497068397284e-16
    17    9.480341274522e-05
    18   -4.659460923063e-05
    19    5.644028612016e-05
    20    9.105172761006e-16
    21    4.132884977515e-04
    22    2.350299114514e-04
    23    5.811609485458e-05
    24   -3.133192564087e-15
    25   -2.687354462208e-04
    26   -8.379559502945e-04
    27    9.938954687896e-06
    28    6.121225359780e-15
    29   -1.270508305637e-05
    30   -2.564899407220e-05
    31   -7.759665203941e-05
    32   -6.343386390784e-14
    33   -3.673704978978e-05
    34   -2.005931286566e-04
    35    3.200136968066e-05
    36    1.068132680252e-16
    37    1.145801558660e-04
    38    2.088922178188e-16
    39   -7.760837948671e-04
    40   -6.008174481293e-03
    41   -2.997108461787e-02
    42   -1.029020295501e-01
    43   -2.430870696750e-01
    44   -8.880708687364e-02
    45   -3.254494418937e-01
    46    4.012781162204e-05
    47    8.298907880911e-16
    48    5.978121395345e-06
    49   -1.052616515729e-03
    50   -1.507727928406e-05
    51   -1.932035998108e-15
    52   -1.644311544318e-05
    53   -9.282086786301e-04
    54   -3.275874076186e-04
    55    3.415102636951e-15
    56   -1.231473548818e-04
    57    9.036793557000e-04
    58    1.709929516885e-04
    59   -1.360961760252e-14
    60   -2.785935704246e-05
    61    5.528234105923e-05
    62    1.305609662759e-04
    63    1.277186707688e-13
    64    3.013746176696e-05
    65   -9.158292341761e-05
    66    2.769920052325e-05
    67   -6.957017681713e-16
    68   -8.423872457943e-05
    69    4.851285465614e-16
    70   -2.721667502355e-04
    71   -3.077050527554e-04
    72   -2.442087169366e-05
    73    9.190907530665e-05
    74   -1.940834172653e-04
    75   -1.218793854659e-16
    76   -1.172198134738e-04
    77   -6.401864010310e-12
    78   -4.956095719753e-11
    79   -2.472309249634e-10
    80   -8.487824316866e-10
    81   -2.005167715086e-09
    82   -7.277220094526e-10
    83   -2.682572196553e-09
    84    1.439154612228e-04
    85    4.912464140340e-16
    86   -1.725622839127e-12
    87   -3.424658581751e-11
    88    7.357842118275e-04
    89   -4.818136239187e-16
    90   -2.083032275346e-11
    91   -1.252959612567e-11
    92   -3.665036815942e-04
    93   -3.810813825253e-16
    94   -5.717576073728e-12
    95   -2.065300896943e-10
    96    4.408128604671e-04
    97    1.432250611208e-14
    98   -4.008661681856e-11
    99   -1.176110966256e-11
   100   -1.336319649216e-04
   101   -1.348776318061e-13
   102    1.216938335094e-12
   103    6.392407377134e-12
   104    4.175617845689e-04
   105    2.079204012655e-16
   106   -6.016741375464e-12
   107    6.565744542987e-16
   108   -3.963912991732e-12
   109   -1.148036399666e-11
   110    8.240381245159e-12
   111   -1.008808706969e-11
   112    6.222494126571e-05
   113    5.493944899282e-16
   114   -6.582396420033e-12
   115    7.760837421618e-04
   116    6.008174073269e-03
   117    2.997108258249e-02
   118    1.029020225619e-01
   119    2.430870531672e-01
   120    8.880708085361e-02
   121    3.254494197936e-01
   122    4.012780767539e-05
   123   -2.339111392343e-15
   124   -5.978129248039e-06
   125    1.052616393628e-03
   126   -1.507725560064e-05
   127    1.433751447825e-15
   128    1.644308328786e-05
   129    9.282087066450e-04
   130   -3.275874353214e-04
   131   -5.340034560742e-16
   132    1.231473748743e-04
   133   -9.036792924747e-04
   134    1.709928402907e-04
   135   -7.608892204085e-15
   136    2.785934938391e-05
   137   -5.528233007857e-05
   138    1.305609659903e-04
   139    1.087615650298e-13
   140   -3.013747130031e-05
   141    9.158290369243e-05
   142    2.769919002299e-05
   143   -1.065349889963e-15
   144    8.423872502436e-05
   145   -3.133578802139e-16
   146    2.721667280017e-04
   147    3.077050228401e-04
   148    2.442091071359e-05
   149   -9.190901906893e-05
   150   -1.940833978433e-04
   151    5.327994261842e-16
   152    1.172198008723e-04
   153   -1.138990167378e-04
   154   -8.818479555661e-04
   155   -4.398492123578e-03
   156   -1.510418845437e-02
   157   -3.566326001923e-02
   158   -1.303353612333e-02
   159   -4.783185106119e-02
   160   -1.517172288038e-07
   161    9.602082215844e-17
   162   -9.480341304300e-05
   163    4.659447261461e-05
   164    5.644030230760e-05
   165    3.639380857588e-16
   166   -4.132884582636e-04
   167   -2.350299952587e-04
   168    5.811613554679e-05
   169    1.217949105593e-15
   170    2.687354622584e-04
   171    8.379561380186e-04
   172    9.938924466094e-06
   173    1.321680238446e-16
   174    1.270498999971e-05
   175    2.564901850115e-05
   176   -7.759666175832e-05
   177   -4.589769582007e-14
   178    3.673709440249e-05
   179    2.005931071638e-04
   180    3.200137542097e-05
   181   -2.805078931267e-16
   182   -1.145801560899e-04
   183   -6.819185924792e-16
   184   -2.503788810542e-05
   185   -6.787261579191e-06
   186   -1.131426681108e-04
   187   -1.055068622694e-04
   188    1.078241054494e-05
   189   -4.546606430655e-16
   190   -3.073347148193e-05
   191    7.654198344211e-13
   192    5.926721094742e-12
   193    2.957725566833e-11
   194    1.015487527636e-10
   195    2.404077570456e-10
   196    9.645699234205e-11
   197    3.224429825313e-10
   198   -5.292369045522e-05
   199    3.799579907230e-16
   200    4.297411503124e-12
   201   -4.007911889767e-11
   202    8.718322475025e-05
   203    3.680988810151e-16
   204    1.680562356874e-11
   205    5.501475931296e-11
   206   -1.542770151772e-04
   207   -3.959908139023e-17
   208   -3.208970508766e-11
   209   -6.851869954987e-11
   210   -3.481419239315e-04
   211    5.007629883387e-15
   212    1.392198001546e-10
   213    2.405704790178e-13
   214    7.491317336126e-05
   215   -1.636934273673e-14
   216   -3.859052419179e-11
   217    6.280553778441e-12
   218   -5.711180002850e-05
   219   -2.654442296433e-16
   220   -6.859096467416e-12
   221   -3.437392622198e-16
   222   -5.107011829352e-14
   223   -3.929357101110e-14
   224   -6.042781340705e-13
   225    1.872812589438e-12
   226   -3.321833933710e-12
   227    1.104422619447e-11
   228    9.182896697018e-07
   229   -6.026173055731e-15
   230    1.254286189091e-13
   231    1.735666320435e-06
   232   -1.580101376280e-15
   233   -1.177121050505e-13
   234   -6.093068195633e-06
   235   -8.280566924766e-16
   236   -5.906711029547e-13
   237    2.291519196259e-05
   238    1.895886149853e-16
   239    1.275389893886e-12
   240   -1.577422239953e-05
   241    5.904352217930e-16
   242   -7.483530968562e-12
   243   -9.268942933625e-11
   244    5.462336607169e-05
   245   -4.245475363368e-15
   246    2.138838784472e-11
   247   -3.148667982420e-11
   248   -2.001730195488e-05
   249    2.883165681954e-14
   250    1.539875458729e-11
   251   -1.271271341635e-12
   252   -3.662047234627e-06
   253   -2.695105869166e-17
   254    1.305309754017e-13
   255   -2.511101043611e-16
Sym=X
Ene= -0.795758
Spin=Alpha
Occup=1
     1   -1.186988907816e-06
     2   -1.187928124673e-04
     3   -7.393158363265e-05
     4    9.343507650605e-06
     5   -1.134812463316e-05
     6    1.848271072332e-16
     7    2.289472987072e-05
     8   -7.580142295187e-06
     9   -5.872419251004e-05
    10   -2.926511019102e-04
    11   -1.005936326856e-03
    12   -2.365209322514e-03
    13   -8.216919830886e-04
    14   -3.210187234100e-03
    15    7.329060229706e-06
    16    1.142912612587e-15
    17   -3.713524485966e-05
    18   -7.044134409169e-05
    19   -4.447745478115e-05
    20   -1.758910201489e-15
    21    1.406304124610e-04
    22   -7.749956592885e-04
    23   -5.076882319613e-04
    24    6.615995417028e-15
    25    1.557657200561e-04
    26    2.539242380713e-04
    27    1.925185905584e-05
    28   -3.478833448348e-14
    29   -1.752081540950e-04
    30    7.273545020176e-05
    31    2.060098008787e-05
    32    1.203556841524e-13
    33    3.037264416326e-04
    34   -5.079189657685e-05
    35    3.530947403959e-05
    36   -5.324184437871e-16
    37    2.613229029622e-05
    38    3.946998970763e-16
    39    7.705604090672e-05
    40    5.966160196695e-04
    41    2.975729804773e-03
    42    1.021919894391e-02
    43    2.412633385684e-02
    44    8.856944961286e-03
    45    3.238936413472e-02
    46   -1.144642572028e-04
    47    9.725384540382e-17
    48    5.211540525866e-05
    49   -3.139338514888e-04
    50   -4.912566581832e-04
    51    1.542507981217e-15
    52    3.525532354464e-04
    53    1.234190699794e-03
    54    8.116423207662e-04
    55   -4.518977534455e-15
    56    1.348306182485e-04
    57    4.130367124103e-05
    58    3.199860967750e-04
    59    2.607444040842e-14
    60    2.802263376528e-04
    61    2.832873932899e-05
    62    7.750033609264e-06
    63   -1.137063307680e-13
    64   -1.706919798406e-04
    65    1.575379851711e-04
    66    2.875016119800e-04
    67   -3.136628861630e-16
    68   -1.019610474794e-04
    69   -2.337815588225e-16
    70   -5.796722475059e-06
    71    1.520290698229e-05
    72    3.416794326211e-04
    73    2.682856799449e-04
    74   -5.690357851459e-05
    75    2.453984344974e-16
    76    1.916561732776e-05
    77   -1.103878968329e-03
    78   -8.545887689175e-03
    79   -4.262991924642e-02
    80   -1.463658225939e-01
    81   -3.457532498180e-01
    82   -1.262925066172e-01
    83   -4.629216413928e-01
    84   -3.525390432357e-13
    85    1.356996584467e-15
    86    6.806814007576e-05
    87   -1.583057008460e-03
    88   -3.875651761026e-12
    89   -7.988559289373e-16
    90   -1.445071846069e-04
    91   -2.078813184206e-03
    92    2.297162877748e-12
    93    4.539491980648e-15
    94   -9.777413046619e-04
    95   -4.976827119160e-04
    96   -3.759631545251e-14
    97   -2.406676649309e-14
    98   -2.591407448786e-04
    99   -6.927910934925e-05
   100    1.129018222684e-12
   101    9.517705334570e-14
   102    1.625840111475e-04
   103   -2.112664446863e-05
   104   -2.243080787809e-12
   105    2.992357444940e-16
   106   -1.758524921657e-04
   107    5.942878303715e-17
   108   -3.890702008362e-04
   109   -5.448765919255e-04
   110   -1.197690562460e-04
   111   -1.614486732906e-05
   112   -3.488687128049e-13
   113    9.080639285545e-17
   114   -3.445266679483e-04
   115    7.705603518392e-05
   116    5.966159753619e-04
   117    2.975729583749e-03
   118    1.021919818507e-02
   119    2.412633206402e-02
   120    8.856944306246e-03
   121    3.238936173550e-02
   122    1.144642570167e-04
   123   -1.672097230586e-16
   124    5.211540428830e-05
   125   -3.139338614437e-04
   126    4.912566575340e-04
   127    4.486439040558e-16
   128    3.525532309012e-04
   129    1.234190694496e-03
   130   -8.116423187572e-04
   131   -1.324429645264e-15
   132    1.348306192905e-04
   133    4.130366403597e-05
   134   -3.199860890864e-04
   135    1.885900916929e-14
   136    2.802263361546e-04
   137    2.832873897416e-05
   138   -7.750035244257e-06
   139   -7.443602930224e-14
   140   -1.706919780932e-04
   141    1.575379821615e-04
   142   -2.875016118535e-04
   143    8.983843469660e-17
   144   -1.019610468898e-04
   145    2.450794247267e-16
   146   -5.796724663021e-06
   147    1.520290434068e-05
   148    3.416794326595e-04
   149    2.682856771752e-04
   150    5.690358017387e-05
   151    1.652902707166e-16
   152    1.916561592433e-05
   153   -7.580150339845e-06
   154   -5.872425478448e-05
   155   -2.926514125704e-04
   156   -1.005937393443e-03
   157   -2.365211842296e-03
   158   -8.216929039667e-04
   159   -3.210190606631e-03
   160   -7.329059256342e-06
   161    6.443889024686e-16
   162   -3.713524504888e-05
   163   -7.044135684832e-05
   164    4.447745313653e-05
   165   -4.174707924279e-16
   166    1.406304173210e-04
   167   -7.749956699314e-04
   168    5.076882365913e-04
   169    3.945627164566e-15
   170    1.557657174170e-04
   171    2.539242956470e-04
   172   -1.925187518681e-05
   173   -2.893522674694e-14
   174   -1.752081433131e-04
   175    7.273545162366e-05
   176   -2.060097908242e-05
   177    8.182723318683e-14
   178    3.037264391772e-04
   179   -5.079189973533e-05
   180   -3.530947439921e-05
   181    6.205831166913e-17
   182    2.613229060301e-05
   183   -3.004181914410e-16
   184   -1.186991828709e-06
   185   -1.187928155392e-04
   186   -7.393158345573e-05
   187    9.343510764354e-06
   188    1.134812662283e-05
   189   -7.091438699461e-17
   190    2.289473152788e-05
   191   -1.011755459069e-07
   192   -8.340333436675e-07
   193   -3.791166852992e-06
   194   -1.444474383789e-05
   195   -2.083533138570e-05
   196    4.573200561093e-05
   197   -7.339145654700e-05
   198   -5.732560251500e-13
   199   -1.007964575708e-15
   200   -2.884053847811e-06
   201   -1.579060188240e-04
   202   -5.547253727414e-12
   203    2.575149183600e-15
   204    3.997071172940e-05
   205    1.073977165075e-03
   206    4.528349728385e-12
   207   -8.998477295542e-15
   208   -5.876867093619e-04
   209   -3.713354955033e-04
   210   -1.739824432955e-11
   211    4.356040099721e-14
   212    8.397461164125e-04
   213   -1.840931733202e-05
   214   -1.274387951697e-12
   215   -1.352417519217e-13
   216   -4.748941610482e-04
   217    1.783688747699e-05
   218    2.741024027928e-12
   219   -5.788866588530e-17
   220   -1.063918627056e-05
   221   -1.971614546719e-17
   222    5.827992648014e-08
   223    6.660563615524e-07
   224   -4.463474531962e-06
   225    9.735681573046e-06
   226   -3.002486457153e-05
   227    1.538655435317e-04
   228   -1.090203710517e-13
   229    2.474550139036e-16
   230   -3.735072885017e-06
   231   -6.954267638232e-14
   232    1.279002708217e-15
   233   -2.884133138800e-06
   234    2.416371279594e-13
   235   -1.541470431872e-15
   236    7.499486529063e-06
   237   -4.464331699945e-13
   238   -2.887312681805e-16
   239   -2.034925038161e-05
   240    1.542244241960e-13
   241    2.367937658646e-15
   242   -7.525430955582e-05
   243   -5.439877835848e-04
   244    7.153948851507e-13
   245   -1.214314454678e-14
   246    1.319161271457e-04
   247   -1.557934632939e-04
   248    5.549170018418e-13
   249    1.721073930129e-14
   250    1.188456333874e-04
   251   -1.864327694761e-06
   252    1.672527803097e-13
   253   -3.741004107104e-16
   254    1.505260650402e-06
   255   -2.797337172777e-16
Sym=X
Ene= 0.795758
Spin=Alpha
Occup=0
     1   -2.768583308177e-03
     2    3.194799671157e-03
     3    4.391465657003e-02
     4    1.551644054381e-01
     5   -3.949116156665e-03
     6    4.179530188751e-14
     7    2.398915188771e-04
     8    1.413225093965e-06
     9    8.312814541925e-06
    10    4.799018815651e-05
    11    1.485228672823e-04
    12    4.384349977561e-04
    13    5.220934952797e-04
    14    8.477973852736e-04
    15    1.532731523002e-02
    16    3.978068666443e-14
    17   -1.216753693856e-02
    18   -6.390342643358e-03
    19    2.305828558965e-02
    20   -4.399422614253e-14
    21   -2.001668866057e-02
    22    1.659840087304e-02
    23    6.325911875533e-02
    24    3.881001582997e-14
    25   -3.040177527938e-02
    26    1.491004139886e+00
    27    3.337348608067e-01
    28   -6.678053218314e-13
    29   -9.626945546889e-02
    30    5.495872794728e-02
    31    7.094166902488e-02
    32   -6.899365946116e-12
    33    3.946853995088e-01
    34   -1.913065462156e-03
    35   -5.334638159704e-03
    36    2.618166951502e-14
    37   -7.185553880750e-04
    38    8.627397024710e-15
    39    2.474539973187e-05
    40    1.822807397086e-04
    41    9.762452188867e-04
    42    3.157327626719e-03
    43    7.921089838940e-03
    44    3.572238713942e-03
    45    2.089862948768e-02
    46    3.272689288541e-02
    47    1.923631516987e-14
    48    2.108599591456e-02
    49   -6.764506201365e-02
    50    4.970032984918e-02
    51   -1.569771915432e-13
    52    3.670454581608e-02
    53   -2.628568056996e-01
    54    5.675117535693e-02
    55   -3.340727584629e-14
    56    5.869415475644e-02
    57   -2.487157388446e+00
    58   -2.574041411811e-01
    59   -4.493297999738e-13
    60    6.709812283415e-02
    61   -1.492141362885e-01
    62   -3.014474839051e-01
    63    1.230772124152e-11
    64   -5.763874854531e-01
    65   -9.077287229211e-04
    66    4.813573554472e-03
    67    2.489356455403e-14
    68   -5.550107264984e-04
    69   -5.866110557712e-15
    70   -8.435819807832e-03
    71   -1.907046851231e-03
    72    1.088868633662e-01
    73    4.750855271288e-01
    74   -8.341374441389e-03
    75   -2.825533272401e-14
    76   -6.478344145394e-03
    77   -4.045838671358e-15
    78   -1.632321086372e-14
    79   -1.831124627664e-13
    80   -2.748900909705e-13
    81   -5.013179001639e-12
    82   -2.620807142795e-11
    83    8.537892089912e-12
    84   -4.929362534143e-03
    85    1.517190010687e-14
    86   -7.624643358220e-12
    87    1.238696006983e-10
    88   -3.893303046001e-03
    89    9.704935182524e-14
    90   -1.020822285735e-10
    91   -1.497008631909e-09
    92   -9.227560115303e-02
    93    1.785046270331e-13
    94    5.915049328416e-10
    95   -6.126611990945e-08
    96   -1.048612242225e+00
    97    1.722299679654e-14
    98    2.297058924562e-08
    99    2.998601662331e-09
   100   -2.168049731474e-01
   101   -1.208711574533e-11
   102   -2.780083281292e-10
   103    1.055828597824e-11
   104    1.629972292237e-03
   105   -6.508494703791e-15
   106    1.839978987499e-11
   107    2.008060593728e-14
   108    3.290474286521e-11
   109   -4.042599156740e-10
   110    6.082874340256e-09
   111    2.900096070843e-08
   112   -8.089006198571e-03
   113    6.915054236217e-15
   114   -7.443733481220e-12
   115   -2.474539972904e-05
   116   -1.822807396713e-04
   117   -9.762452187954e-04
   118   -3.157327626088e-03
   119   -7.921089842009e-03
   120   -3.572238740907e-03
   121   -2.089862947264e-02
   122    3.272689285614e-02
   123   -5.713554688138e-14
   124   -2.108599599468e-02
   125    6.764506214282e-02
   126    4.970032981073e-02
   127   -1.307177229582e-14
   128   -3.670454597711e-02
   129    2.628568041904e-01
   130    5.675117488478e-02
   131   -9.830423777346e-14
   132   -5.869415576398e-02
   133    2.487157351671e+00
   134   -2.574041757549e-01
   135    2.463813368682e-13
   136   -6.709815384115e-02
   137    1.492141510608e-01
   138   -3.014474758579e-01
   139    1.199721972142e-11
   140    5.763874869184e-01
   141    9.077287386777e-04
   142    4.813573574028e-03
   143   -4.526787046970e-14
   144    5.550107044030e-04
   145    1.298894826872e-14
   146    8.435819786568e-03
   147    1.907046653652e-03
   148   -1.088868617403e-01
   149   -4.750855110669e-01
   150   -8.341374453543e-03
   151    2.350622842556e-14
   152    6.478344152080e-03
   153   -1.413225073790e-06
   154   -8.312814386675e-06
   155   -4.799018727624e-05
   156   -1.485228646683e-04
   157   -4.384349877779e-04
   158   -5.220934726773e-04
   159   -8.477973762765e-04
   160    1.532731527672e-02
   161   -7.538496189581e-14
   162    1.216753687464e-02
   163    6.390342495908e-03
   164    2.305828563722e-02
   165    2.501118706895e-14
   166    2.001668856108e-02
   167   -1.659839996196e-02
   168    6.325912020233e-02
   169    2.907398825346e-14
   170    3.040177409840e-02
   171   -1.491004073979e+00
   172    3.337348824708e-01
   173   -1.454719730069e-12
   174    9.626941805529e-02
   175   -5.495870118123e-02
   176    7.094165462350e-02
   177   -6.679826022351e-12
   178   -3.946853671557e-01
   179    1.913065433403e-03
   180   -5.334638180782e-03
   181   -9.471887184157e-16
   182    7.185553586866e-04
   183   -1.304296274840e-14
   184    2.768583274540e-03
   185   -3.194799505071e-03
   186   -4.391466045632e-02
   187   -1.551644101374e-01
   188   -3.949116156691e-03
   189   -3.661741524270e-14
   190   -2.398915288793e-04
   191   -1.189045306952e-14
   192   -9.269832761265e-14
   193   -4.159811910058e-13
   194   -1.651331453184e-12
   195    2.914971690926e-13
   196    2.342313701830e-11
   197   -2.134341851602e-11
   198    5.727825700571e-03
   199    1.050463349987e-13
   200    3.660005055641e-12
   201   -1.076466477866e-10
   202    6.524189810831e-03
   203    1.117373338005e-13
   204    6.192726932422e-11
   205    1.951608152417e-09