[Molden Format]
[Atoms] (Angs)
  H      1    1     -2.14003202      0.00000000      0.38146042
  C      2    6     -1.21205832      0.00000000     -0.17180643
  C      3    6     -1.20429565      0.00000000     -1.56369320
  H      4    1     -2.14371879      0.00000000     -2.09923439
  C      5    6     -0.00000000      0.00000000     -2.26269040
  H      6    1     -0.00000000      0.00000000     -3.34354440
  C      7    6      1.20429565      0.00000000     -1.56369320
  H      8    1      2.14371879      0.00000000     -2.09923439
  C      9    6      1.21205832     -0.00000000     -0.17180643
  H     10    1      2.14003202     -0.00000000      0.38146042
  C     11    6      0.00000000     -0.00000000      0.51110416
 Cl     12   17      0.00000000     -0.00000000      2.24203561
[GTO]
1    0
S    3    1.000000
   3.38650000E+01    2.54938000E-02 
   5.09479000E+00    1.90373000E-01 
   1.15879000E+00    8.52161000E-01 
S    1    1.000000
   3.25840000E-01    1.00000000E+00 
S    1    1.000000
   1.02741000E-01    1.00000000E+00 
S    1    1.000000
   3.60000000E-02    1.00000000E+00 
P    1    1.000000
   7.50000000E-01    1.00000000E+00 

2    0
S    1    1.000000
   4.56324000E+03    1.96665000E-03 
S    1    1.000000
   6.82024000E+02    1.52306000E-02 
S    1    1.000000
   1.54973000E+02    7.61269000E-02 
S    1    1.000000
   4.44553000E+01    2.60801000E-01 
S    1    1.000000
   1.30290000E+01    6.16462000E-01 
S    1    1.000000
   1.82773000E+00    2.21006000E-01 
SP   3    1.000000
   2.09642000E+01    1.14660000E-01   4.02487000E-02 
   4.80331000E+00    9.19999000E-01   2.37594000E-01 
   1.45933000E+00   -3.03068000E-03   8.15854000E-01 
SP   1    1.000000
   4.83456000E-01    1.00000000E+00   1.00000000E+00 
SP   1    1.000000
   1.45585000E-01    1.00000000E+00   1.00000000E+00 
SP   1    1.000000
   4.38000000E-02    1.00000000E+00   1.00000000E+00 
SP   1    1.000000
   1.31927711E-02    1.00000000E+00   1.00000000E+00 
D    1    1.000000
   6.26000000E-01    1.00000000E+00 

3    0
S    1    1.000000
   4.56324000E+03    1.96665000E-03 
S    1    1.000000
   6.82024000E+02    1.52306000E-02 
S    1    1.000000
   1.54973000E+02    7.61269000E-02 
S    1    1.000000
   4.44553000E+01    2.60801000E-01 
S    1    1.000000
   1.30290000E+01    6.16462000E-01 
S    1    1.000000
   1.82773000E+00    2.21006000E-01 
SP   3    1.000000
   2.09642000E+01    1.14660000E-01   4.02487000E-02 
   4.80331000E+00    9.19999000E-01   2.37594000E-01 
   1.45933000E+00   -3.03068000E-03   8.15854000E-01 
SP   1    1.000000
   4.83456000E-01    1.00000000E+00   1.00000000E+00 
SP   1    1.000000
   1.45585000E-01    1.00000000E+00   1.00000000E+00 
SP   1    1.000000
   4.38000000E-02    1.00000000E+00   1.00000000E+00 
SP   1    1.000000
   1.31927711E-02    1.00000000E+00   1.00000000E+00 
D    1    1.000000
   6.26000000E-01    1.00000000E+00 

4    0
S    3    1.000000
   3.38650000E+01    2.54938000E-02 
   5.09479000E+00    1.90373000E-01 
   1.15879000E+00    8.52161000E-01 
S    1    1.000000
   3.25840000E-01    1.00000000E+00 
S    1    1.000000
   1.02741000E-01    1.00000000E+00 
S    1    1.000000
   3.60000000E-02    1.00000000E+00 
P    1    1.000000
   7.50000000E-01    1.00000000E+00 

5    0
S    1    1.000000
   4.56324000E+03    1.96665000E-03 
S    1    1.000000
   6.82024000E+02    1.52306000E-02 
S    1    1.000000
   1.54973000E+02    7.61269000E-02 
S    1    1.000000
   4.44553000E+01    2.60801000E-01 
S    1    1.000000
   1.30290000E+01    6.16462000E-01 
S    1    1.000000
   1.82773000E+00    2.21006000E-01 
SP   3    1.000000
   2.09642000E+01    1.14660000E-01   4.02487000E-02 
   4.80331000E+00    9.19999000E-01   2.37594000E-01 
   1.45933000E+00   -3.03068000E-03   8.15854000E-01 
SP   1    1.000000
   4.83456000E-01    1.00000000E+00   1.00000000E+00 
SP   1    1.000000
   1.45585000E-01    1.00000000E+00   1.00000000E+00 
SP   1    1.000000
   4.38000000E-02    1.00000000E+00   1.00000000E+00 
SP   1    1.000000
   1.31927711E-02    1.00000000E+00   1.00000000E+00 
D    1    1.000000
   6.26000000E-01    1.00000000E+00 

6    0
S    3    1.000000
   3.38650000E+01    2.54938000E-02 
   5.09479000E+00    1.90373000E-01 
   1.15879000E+00    8.52161000E-01 
S    1    1.000000
   3.25840000E-01    1.00000000E+00 
S    1    1.000000
   1.02741000E-01    1.00000000E+00 
S    1    1.000000
   3.60000000E-02    1.00000000E+00 
P    1    1.000000
   7.50000000E-01    1.00000000E+00 

7    0
S    1    1.000000
   4.56324000E+03    1.96665000E-03 
S    1    1.000000
   6.82024000E+02    1.52306000E-02 
S    1    1.000000
   1.54973000E+02    7.61269000E-02 
S    1    1.000000
   4.44553000E+01    2.60801000E-01 
S    1    1.000000
   1.30290000E+01    6.16462000E-01 
S    1    1.000000
   1.82773000E+00    2.21006000E-01 
SP   3    1.000000
   2.09642000E+01    1.14660000E-01   4.02487000E-02 
   4.80331000E+00    9.19999000E-01   2.37594000E-01 
   1.45933000E+00   -3.03068000E-03   8.15854000E-01 
SP   1    1.000000
   4.83456000E-01    1.00000000E+00   1.00000000E+00 
SP   1    1.000000
   1.45585000E-01    1.00000000E+00   1.00000000E+00 
SP   1    1.000000
   4.38000000E-02    1.00000000E+00   1.00000000E+00 
SP   1    1.000000
   1.31927711E-02    1.00000000E+00   1.00000000E+00 
D    1    1.000000
   6.26000000E-01    1.00000000E+00 

8    0
S    3    1.000000
   3.38650000E+01    2.54938000E-02 
   5.09479000E+00    1.90373000E-01 
   1.15879000E+00    8.52161000E-01 
S    1    1.000000
   3.25840000E-01    1.00000000E+00 
S    1    1.000000
   1.02741000E-01    1.00000000E+00 
S    1    1.000000
   3.60000000E-02    1.00000000E+00 
P    1    1.000000
   7.50000000E-01    1.00000000E+00 

9    0
S    1    1.000000
   4.56324000E+03    1.96665000E-03 
S    1    1.000000
   6.82024000E+02    1.52306000E-02 
S    1    1.000000
   1.54973000E+02    7.61269000E-02 
S    1    1.000000
   4.44553000E+01    2.60801000E-01 
S    1    1.000000
   1.30290000E+01    6.16462000E-01 
S    1    1.000000
   1.82773000E+00    2.21006000E-01 
SP   3    1.000000
   2.09642000E+01    1.14660000E-01   4.02487000E-02 
   4.80331000E+00    9.19999000E-01   2.37594000E-01 
   1.45933000E+00   -3.03068000E-03   8.15854000E-01 
SP   1    1.000000
   4.83456000E-01    1.00000000E+00   1.00000000E+00 
SP   1    1.000000
   1.45585000E-01    1.00000000E+00   1.00000000E+00 
SP   1    1.000000
   4.38000000E-02    1.00000000E+00   1.00000000E+00 
SP   1    1.000000
   1.31927711E-02    1.00000000E+00   1.00000000E+00 
D    1    1.000000
   6.26000000E-01    1.00000000E+00 

10    0
S    3    1.000000
   3.38650000E+01    2.54938000E-02 
   5.09479000E+00    1.90373000E-01 
   1.15879000E+00    8.52161000E-01 
S    1    1.000000
   3.25840000E-01    1.00000000E+00 
S    1    1.000000
   1.02741000E-01    1.00000000E+00 
S    1    1.000000
   3.60000000E-02    1.00000000E+00 
P    1    1.000000
   7.50000000E-01    1.00000000E+00 

11    0
S    1    1.000000
   4.56324000E+03    1.96665000E-03 
S    1    1.000000
   6.82024000E+02    1.52306000E-02 
S    1    1.000000
   1.54973000E+02    7.61269000E-02 
S    1    1.000000
   4.44553000E+01    2.60801000E-01 
S    1    1.000000
   1.30290000E+01    6.16462000E-01 
S    1    1.000000
   1.82773000E+00    2.21006000E-01 
SP   3    1.000000
   2.09642000E+01    1.14660000E-01   4.02487000E-02 
   4.80331000E+00    9.19999000E-01   2.37594000E-01 
   1.45933000E+00   -3.03068000E-03   8.15854000E-01 
SP   1    1.000000
   4.83456000E-01    1.00000000E+00   1.00000000E+00 
SP   1    1.000000
   1.45585000E-01    1.00000000E+00   1.00000000E+00 
SP   1    1.000000
   4.38000000E-02    1.00000000E+00   1.00000000E+00 
SP   1    1.000000
   1.31927711E-02    1.00000000E+00   1.00000000E+00 
D    1    1.000000
   6.26000000E-01    1.00000000E+00 

12    0
S    6    1.000000
   1.05819000E+05    7.38000000E-04 
   1.58720000E+04    5.71800000E-03 
   3.61965000E+03    2.94950000E-02 
   1.03080000E+03    1.17286000E-01 
   3.39908000E+02    3.62949000E-01 
   1.24538000E+02    5.84149000E-01 
S    3    1.000000
   1.24538000E+02    1.34177000E-01 
   4.95135000E+01    6.24250000E-01 
   2.08056000E+01    2.91756000E-01 
S    1    1.000000
   6.58346000E+00    1.00000000E+00 
S    1    1.000000
   2.56468000E+00    1.00000000E+00 
S    1    1.000000
   5.59763000E-01    1.00000000E+00 
S    1    1.000000
   1.83273000E-01    1.00000000E+00 
P    5    1.000000
   5.89776000E+02    2.39100000E-03 
   1.39849000E+02    1.85040000E-02 
   4.51413000E+01    8.13770000E-02 
   1.68733000E+01    2.21552000E-01 
   6.74110000E+00    7.72569000E-01 
P    2    1.000000
   6.74110000E+00   -1.57224400E+00 
   2.77152000E+00    9.92389000E-01 
P    1    1.000000
   1.02387000E+00    1.00000000E+00 
P    1    1.000000
   3.81368000E-01    1.00000000E+00 
P    1    1.000000
   1.09437000E-01    1.00000000E+00 
SP   1    1.000000
   4.83000000E-02    1.00000000E+00   1.00000000E+00 
SP   1    1.000000
   1.45481928E-02    1.00000000E+00   1.00000000E+00 
D    1    1.000000
   7.50000000E-01    1.00000000E+00 

[MO]
Sym=X
Ene= -0.817559
Spin=Alpha
Occup=1
     1   -3.107010746352e-05
     2   -8.655471143485e-05
     3    2.435830784043e-04
     4    1.567355662448e-04
     5   -8.610437082072e-05
     6   -1.973378912356e-16
     7   -2.462155486117e-06
     8    1.171693670751e-05
     9    9.081000635936e-05
    10    4.523785001282e-04
    11    1.556298199015e-03
    12    3.653847811656e-03
    13    1.334390045612e-03
    14    5.008943617547e-03
    15   -1.160035151790e-04
    16    7.193516181176e-16
    17   -3.837896745457e-05
    18   -3.070623161457e-04
    19   -4.140131697721e-04
    20   -9.473497529882e-16
    21   -3.266870105287e-04
    22    7.853335483203e-04
    23    5.912167993570e-04
    24    6.233635382997e-15
    25    1.918031929330e-04
    26    6.154564197683e-04
    27   -4.298513068179e-04
    28   -2.762279203757e-14
    29   -1.246818735373e-03
    30    2.496670026213e-04
    31    2.329004020317e-04
    32    8.042541730263e-14
    33    8.467314510376e-04
    34    1.365266617565e-04
    35   -2.879317041753e-04
    36   -2.278994079505e-16
    37   -5.362306693653e-05
    38    4.801628891437e-16
    39   -8.556037356599e-07
    40   -6.677110013375e-06
    41   -3.292506898401e-05
    42   -1.145342044147e-04
    43   -2.563615601885e-04
    44   -3.733469724579e-05
    45   -3.942359260577e-04
    46    9.854942387945e-06
    47   -8.834422270223e-17
    48    3.280270495306e-05
    49   -9.330929789387e-05
    50   -5.153327265974e-05
    51    1.649127761357e-15
    52   -1.998224916092e-04
    53   -4.171844099494e-04
    54   -4.611924699976e-04
    55   -3.968497834488e-15
    56    3.135342137231e-05
    57   -1.283901756863e-03
    58    4.708557695287e-04
    59    2.002109676717e-14
    60   -6.959141975206e-04
    61    1.484605002599e-05
    62   -1.761485382377e-04
    63   -7.514659317432e-14
    64   -3.010900133847e-04
    65   -7.589298344725e-05
    66   -5.647538704661e-05
    67   -1.736817966739e-16
    68    3.148654415775e-05
    69   -1.902992292451e-16
    70    2.023078357486e-06
    71   -1.204311352006e-04
    72   -3.804548846233e-05
    73    6.598874162605e-05
    74   -8.726771538901e-06
    75    2.649555332605e-16
    76   -2.975457682211e-05
    77   -4.632767207329e-07
    78   -3.635504381408e-06
    79   -1.778152031781e-05
    80   -6.242420898613e-05
    81   -1.345523469630e-04
    82    3.003163439189e-06
    83   -2.255019759499e-04
    84    1.440066938913e-13
    85    5.648486021775e-16
    86    6.873058536811e-06
    87   -1.428940594749e-04
    88    1.833793899613e-12
    89    3.993284266882e-18
    90   -5.266160664827e-05
    91    9.398032607376e-04
    92   -1.170896642533e-12
    93    3.050408177565e-15
    94    4.301844101702e-04
    95   -1.799883911545e-03
    96    1.794289660091e-11
    97   -1.483342610546e-14
    98    2.201486432105e-05
    99   -1.459712072730e-04
   100   -4.493219538965e-13
   101    6.174272407478e-14
   102    1.476814371298e-04
   103    2.705928813805e-05
   104    1.055954514778e-12
   105    3.044037839220e-16
   106   -1.789692299851e-05
   107    4.478662531370e-17
   108   -1.148087819372e-05
   109   -2.413820561788e-06
   110    1.630434845728e-04
   111    6.532451471134e-05
   112    1.728056380372e-13
   113    3.031654435015e-16
   114   -1.313773147904e-05
   115   -8.556011247089e-07
   116   -6.677089805107e-06
   117   -3.292496817195e-05
   118   -1.145338583101e-04
   119   -2.563607424513e-04
   120   -3.733439846192e-05
   121   -3.942348318167e-04
   122   -9.854942285269e-06
   123    3.790319210032e-16
   124    3.280270543550e-05
   125   -9.330929327762e-05
   126    5.153327300589e-05
   127    3.518579932063e-16
   128   -1.998224892890e-04
   129   -4.171844077102e-04
   130    4.611924694002e-04
   131   -1.500654654426e-15
   132    3.135342022238e-05
   133   -1.283901779706e-03
   134   -4.708557503870e-04
   135    1.567320899560e-14
   136   -6.959141726917e-04
   137    1.484604882755e-05
   138    1.761485399295e-04
   139   -6.011358809284e-14
   140   -3.010900128968e-04
   141   -7.589298194141e-05
   142    5.647538697371e-05
   143   -1.125853733893e-16
   144    3.148654382157e-05
   145   -2.440545175652e-16
   146    2.023079367437e-06
   147   -1.204311340287e-04
   148   -3.804548899737e-05
   149    6.598874041743e-05
   150    8.726770763934e-06
   151    1.819712559618e-16
   152   -2.975457614840e-05
   153    1.171694082717e-05
   154    9.081003824752e-05
   155    4.523786592068e-04
   156    1.556298745198e-03
   157    3.653849101898e-03
   158    1.334390517111e-03
   159    5.008945344595e-03
   160    1.160035146745e-04
   161    5.582213044689e-16
   162   -3.837896734071e-05
   163   -3.070623096475e-04
   164    4.140131706017e-04
   165   -3.139847330009e-16
   166   -3.266870127970e-04
   167    7.853335538585e-04
   168   -5.912168020047e-04
   169    4.658924117672e-15
   170    1.918031935402e-04
   171    6.154564264887e-04
   172    4.298512877744e-04
   173   -2.425071974262e-14
   174   -1.246818716245e-03
   175    2.496670032205e-04
   176   -2.329004031716e-04
   177    6.599002814742e-14
   178    8.467314513516e-04
   179    1.365266632770e-04
   180    2.879317043514e-04
   181   -2.826101354547e-16
   182   -5.362306704032e-05
   183   -9.409743202686e-16
   184   -3.107010596811e-05
   185   -8.655470990799e-05
   186    2.435830795737e-04
   187    1.567355702331e-04
   188    8.610436981522e-05
   189    2.261997805711e-16
   190   -2.462156307778e-06
   191   -1.109286438910e-03
   192   -8.587947058146e-03
   193   -4.283850364689e-02
   194   -1.470870035963e-01
   195   -3.474026938294e-01
   196   -1.264008344973e-01
   197   -4.654348347161e-01
   198    2.948312452570e-13
   199    9.428031597471e-16
   200   -1.251206307483e-03
   201   -1.899440100812e-03
   202    2.786469234057e-12
   203    7.189443754618e-16
   204    8.196101124014e-04
   205   -2.120835076823e-03
   206   -2.213014888004e-12
   207   -3.207893977186e-15
   208   -5.980675460231e-05
   209    2.512999604286e-03
   210   -1.279439764387e-11
   211    2.969462955335e-14
   212    6.332761328433e-04
   213    2.208439682365e-04
   214    4.375238365610e-14
   215   -7.360835892523e-14
   216   -1.327935666688e-03
   217    4.738655958078e-05
   218   -1.377368452379e-12
   219    2.753231333743e-16
   220   -2.427650262543e-04
   221    1.541101116701e-16
   222    1.998656756458e-05
   223    5.973420866790e-05
   224   -1.299370805252e-04
   225    6.797859351988e-05
   226   -2.181389687343e-04
   227   -1.208648756799e-05
   228    7.757585266632e-14
   229    2.409279206119e-15
   230   -1.168444951659e-04
   231    4.327502920117e-14
   232    2.978625777690e-15
   233   -4.976483628910e-05
   234   -1.237494429286e-13
   235   -3.787913658155e-15
   236    4.956230288608e-05
   237    2.136483332321e-13
   238    4.461368133695e-15
   239    4.883406214364e-04
   240   -1.707575338007e-14
   241   -6.214490561457e-15
   242   -3.411514959002e-04
   243    2.604881823059e-05
   244    1.723979426402e-13
   245    3.319225807684e-15
   246    9.399862955292e-05
   247   -7.137598482284e-04
   248   -1.568257038231e-13
   249   -5.737327331973e-15
   250    3.569657272197e-04
   251   -2.576573516327e-04
   252   -7.762111123630e-14
   253   -2.689446544582e-16
   254    2.728236689064e-06
   255   -1.050429564023e-16
Sym=X
Ene= 0.817559
Spin=Alpha
Occup=0
     1    2.363818076441e-02
     2    6.821065285812e-02
     3    1.735080910069e-01
     4    2.416577309229e-01
     5   -4.452268086994e-03
     6    6.291289604812e-14
     7    5.344311866002e-03
     8    8.545129972706e-07
     9    6.145975694027e-06
    10    3.519425182885e-05
    11    1.033583844351e-04
    12    3.027839468795e-04
    13   -1.064529409323e-04
    14    7.634238366286e-04
    15    3.018165804260e-02
    16   -2.569743854514e-13
    17    3.325504616301e-04
    18   -6.686991673822e-03
    19    4.902413681863e-02
    20   -4.641274250532e-13
    21    2.506849491861e-03
    22   -3.426965324286e-02
    23    6.306663016322e-02
    24   -4.707137119239e-13
    25   -3.117077781824e-02
    26    5.460890396233e-01
    27    1.446205296014e-03
    28   -2.040988505035e-11
    29   -2.458990146852e-01
    30    2.661664499537e-01
    31    2.325068723118e-01
    32    4.425869210112e-11
    33    4.981726528309e-01
    34   -2.164474797204e-02
    35   -2.070216224044e-02
    36    2.021240581769e-13
    37    2.010581902423e-02
    38   -2.136055067044e-15
    39    1.862514173179e-05
    40    1.402007402600e-04
    41    7.479679080124e-04
    42    2.422112126590e-03
    43    6.099934856323e-03
    44    2.885637075564e-03
    45    1.579770193089e-02
    46    3.405983676293e-03
    47   -4.471660867752e-14
    48   -2.258164732263e-02
    49   -5.368121947686e-02
    50   -2.454361240451e-04
    51    3.396860931306e-14
    52   -3.491748941506e-02
    53   -1.117659598087e-01
    54    5.293672244446e-02
    55   -7.405201177978e-13
    56   -4.780432494365e-02
    57    3.826372628275e-01
    58    4.986080403159e-01
    59    2.225796705154e-11
    60   -1.060538279843e-01
    61    1.638182577021e-01
    62   -1.300760487043e-01
    63   -4.307418019086e-11
    64   -9.134586642427e-02
    65    1.900781613067e-03
    66    9.285576390688e-03
    67   -2.009201463072e-13
    68    4.008812222669e-03
    69    7.102388931549e-14
    70    1.285870634491e-02
    71    3.697886872383e-02
    72    1.209922434910e-01
    73    3.189451906021e-01
    74   -9.826099589282e-04
    75    3.998235179315e-14
    76   -1.994484823934e-03
    77    8.872889568826e-06
    78    6.617011272949e-05
    79    3.576334947271e-04
    80    1.141867718583e-03
    81    3.076717130496e-03
    82    2.410335116835e-03
    83    6.985089908437e-03
    84    1.048484602401e-10
    85    3.875493448485e-15
    86   -3.192332313326e-03
    87   -2.934300894256e-02
    88    1.924711821201e-10
    89   -1.946134151933e-13
    90   -8.546783277789e-03
    91   -7.751663486496e-02
    92    1.062451801497e-09
    93    1.392902075368e-12
    94   -1.313329383384e-02
    95   -2.166631144227e+00
    96   -3.129659363746e-07
    97   -2.335258349055e-11
    98   -5.720882726997e-01
    99   -8.026288992473e-02
   100    4.410274345711e-09
   101    4.225797312423e-11
   102   -2.049631038456e-02
   103    1.612376806295e-03
   104    8.507539233631e-11
   105    2.020826009063e-13
   106    2.365572460860e-03
   107   -2.487145300717e-14
   108    8.858393961671e-04
   109    3.646325193540e-03
   110    2.454811319381e-04
   111   -2.214804917850e-01
   112   -8.212859918294e-11
   113   -2.441735791563e-13
   114   -1.485249541109e-03
   115    1.862514173647e-05
   116    1.402007403314e-04
   117    7.479679081215e-04
   118    2.422112127894e-03
   119    6.099934848187e-03
   120    2.885637019120e-03
   121    1.579770196396e-02
   122   -3.405983946375e-03
   123   -8.954856365720e-14
   124   -2.258164732697e-02
   125   -5.368121915251e-02
   126    2.454357931591e-04
   127   -4.645223478175e-14
   128   -3.491748947692e-02
   129   -1.117659606944e-01
   130   -5.293672347097e-02
   131   -8.558136826116e-13
   132   -4.780432107245e-02
   133    3.826376191932e-01
   134   -4.986083967368e-01
   135    2.150709269474e-11
   136   -1.060542627535e-01
   137    1.638182739763e-01
   138    1.300760238931e-01
   139   -4.102270233715e-11
   140   -9.134589633235e-02
   141    1.900781494378e-03
   142   -9.285576296797e-03
   143   -2.093911901841e-13
   144    4.008812195405e-03
   145   -7.950329850672e-15
   146    1.285870625696e-02
   147    3.697886928473e-02
   148    1.209922427140e-01
   149    3.189452105600e-01
   150    9.826099777008e-04
   151    7.495412879259e-14
   152   -1.994484777667e-03
   153    8.545131482922e-07
   154    6.145976805453e-06
   155    3.519425791547e-05
   156    1.033584035926e-04
   157    3.027840012109e-04
   158   -1.064528869065e-04
   159    7.634239494002e-04
   160   -3.018165811907e-02
   161   -2.159486721240e-13
   162    3.325505706095e-04
   163   -6.686992260898e-03
   164   -4.902413684745e-02
   165   -3.458165551830e-13
   166    2.506849403219e-03
   167   -3.426965099963e-02
   168   -6.306663180523e-02
   169   -6.086075817645e-13
   170   -3.117077243669e-02
   171    5.460882760809e-01
   172   -1.445747264141e-03
   173   -1.905814115921e-11
   174   -2.458995247800e-01
   175    2.661664261032e-01
   176   -2.325068540036e-01
   177    4.190957148138e-11
   178    4.981726663208e-01
   179   -2.164474797993e-02
   180    2.070216217382e-02
   181    2.397523414347e-13
   182    2.010581909226e-02
   183    7.787622010659e-14
   184    2.363818070328e-02
   185    6.821065284816e-02
   186    1.735080856089e-01
   187    2.416576777245e-01
   188    4.452268189167e-03
   189    1.380580694315e-13
   190    5.344311811031e-03
   191    1.032103711756e-04
   192    7.694628278455e-04
   193    4.153067551532e-03
   194    1.280229945329e-02
   195    3.181029716759e-02
   196    2.110756859293e-03
   197    9.839011021315e-02
   198    8.148920873881e-11
   199    2.360403759247e-13
   200   -2.758535506001e-01
   201   -3.014242810120e-01
   202    2.147022617255e-10
   203    4.445731274727e-13
   204   -3.788410777151e-01
   205   -7.516124015470e-01
   206   -2.625162382766e-09
   207    8.908409027725e-13
   208   -4.892898801146e-01
   209   -2.067110457817e+00
   210    4.549087512526e-07
   211    1.633109450106e-11
   212   -3.955837414920e-01
   213    1.214943791715e-01
   214    3.503047480130e-09
   215   -4.035486863803e-11
   216   -4.588526020666e-01
   217    3.470710907211e-02
   218    6.822080410137e-11
   219    1.141227075384e-13
   220   -3.652786454976e-03
   221   -2.082576505171e-14
   222    1.002186385443e-02
   223    2.938946111044e-02
   224   -6.187129497575e-02
   225   -1.146256435059e-01
   226    1.651976624409e-01
   227    4.907633540921e-01
   228   -1.723341790477e-10
   229    3.836934920797e-13
   230    1.890150762344e-01
   231   -4.049701686593e-11
   232    9.910602559562e-14
   233    4.384644970511e-02
   234    1.281476989825e-10
   235   -3.950105412943e-13
   236   -1.367287872089e-01
   237    3.972452226424e-10
   238   -1.791843332007e-13
   239   -4.095601199983e-01
   240   -4.245579361370e-11
   241   -3.894535582519e-12
   242   -7.087615874179e-01
   243    1.700632814991e+00
   244   -1.744702665326e-08
   245    6.146426499089e-12
   246   -5.247193697489e-01
   247   -1.076085941964e+00
   248    2.588758837340e-09
   249   -2.296409486552e-12
   250    1.895959189232e-01
   251   -8.888211517936e-02
   252   -6.047806463471e-11
   253    4.306461339875e-14
   254    4.041976296430e-03
   255   -1.129279001904e-13
[5D]
