[Molden Format]
[Atoms] (Angs)
  H      1    1     -2.14003202      0.00000000      0.38146042
  C      2    6     -1.21205832      0.00000000     -0.17180643
  C      3    6     -1.20429565      0.00000000     -1.56369320
  H      4    1     -2.14371879      0.00000000     -2.09923439
  C      5    6     -0.00000000      0.00000000     -2.26269040
  H      6    1     -0.00000000      0.00000000     -3.34354440
  C      7    6      1.20429565      0.00000000     -1.56369320
  H      8    1      2.14371879      0.00000000     -2.09923439
  C      9    6      1.21205832     -0.00000000     -0.17180643
  H     10    1      2.14003202     -0.00000000      0.38146042
  C     11    6      0.00000000     -0.00000000      0.51110416
 Cl     12   17      0.00000000     -0.00000000      2.24203561
[GTO]
1    0
S    3    1.000000
   3.38650000E+01    2.54938000E-02 
   5.09479000E+00    1.90373000E-01 
   1.15879000E+00    8.52161000E-01 
S    1    1.000000
   3.25840000E-01    1.00000000E+00 
S    1    1.000000
   1.02741000E-01    1.00000000E+00 
S    1    1.000000
   3.60000000E-02    1.00000000E+00 
P    1    1.000000
   7.50000000E-01    1.00000000E+00 

2    0
S    1    1.000000
   4.56324000E+03    1.96665000E-03 
S    1    1.000000
   6.82024000E+02    1.52306000E-02 
S    1    1.000000
   1.54973000E+02    7.61269000E-02 
S    1    1.000000
   4.44553000E+01    2.60801000E-01 
S    1    1.000000
   1.30290000E+01    6.16462000E-01 
S    1    1.000000
   1.82773000E+00    2.21006000E-01 
SP   3    1.000000
   2.09642000E+01    1.14660000E-01   4.02487000E-02 
   4.80331000E+00    9.19999000E-01   2.37594000E-01 
   1.45933000E+00   -3.03068000E-03   8.15854000E-01 
SP   1    1.000000
   4.83456000E-01    1.00000000E+00   1.00000000E+00 
SP   1    1.000000
   1.45585000E-01    1.00000000E+00   1.00000000E+00 
SP   1    1.000000
   4.38000000E-02    1.00000000E+00   1.00000000E+00 
SP   1    1.000000
   1.31927711E-02    1.00000000E+00   1.00000000E+00 
D    1    1.000000
   6.26000000E-01    1.00000000E+00 

3    0
S    1    1.000000
   4.56324000E+03    1.96665000E-03 
S    1    1.000000
   6.82024000E+02    1.52306000E-02 
S    1    1.000000
   1.54973000E+02    7.61269000E-02 
S    1    1.000000
   4.44553000E+01    2.60801000E-01 
S    1    1.000000
   1.30290000E+01    6.16462000E-01 
S    1    1.000000
   1.82773000E+00    2.21006000E-01 
SP   3    1.000000
   2.09642000E+01    1.14660000E-01   4.02487000E-02 
   4.80331000E+00    9.19999000E-01   2.37594000E-01 
   1.45933000E+00   -3.03068000E-03   8.15854000E-01 
SP   1    1.000000
   4.83456000E-01    1.00000000E+00   1.00000000E+00 
SP   1    1.000000
   1.45585000E-01    1.00000000E+00   1.00000000E+00 
SP   1    1.000000
   4.38000000E-02    1.00000000E+00   1.00000000E+00 
SP   1    1.000000
   1.31927711E-02    1.00000000E+00   1.00000000E+00 
D    1    1.000000
   6.26000000E-01    1.00000000E+00 

4    0
S    3    1.000000
   3.38650000E+01    2.54938000E-02 
   5.09479000E+00    1.90373000E-01 
   1.15879000E+00    8.52161000E-01 
S    1    1.000000
   3.25840000E-01    1.00000000E+00 
S    1    1.000000
   1.02741000E-01    1.00000000E+00 
S    1    1.000000
   3.60000000E-02    1.00000000E+00 
P    1    1.000000
   7.50000000E-01    1.00000000E+00 

5    0
S    1    1.000000
   4.56324000E+03    1.96665000E-03 
S    1    1.000000
   6.82024000E+02    1.52306000E-02 
S    1    1.000000
   1.54973000E+02    7.61269000E-02 
S    1    1.000000
   4.44553000E+01    2.60801000E-01 
S    1    1.000000
   1.30290000E+01    6.16462000E-01 
S    1    1.000000
   1.82773000E+00    2.21006000E-01 
SP   3    1.000000
   2.09642000E+01    1.14660000E-01   4.02487000E-02 
   4.80331000E+00    9.19999000E-01   2.37594000E-01 
   1.45933000E+00   -3.03068000E-03   8.15854000E-01 
SP   1    1.000000
   4.83456000E-01    1.00000000E+00   1.00000000E+00 
SP   1    1.000000
   1.45585000E-01    1.00000000E+00   1.00000000E+00 
SP   1    1.000000
   4.38000000E-02    1.00000000E+00   1.00000000E+00 
SP   1    1.000000
   1.31927711E-02    1.00000000E+00   1.00000000E+00 
D    1    1.000000
   6.26000000E-01    1.00000000E+00 

6    0
S    3    1.000000
   3.38650000E+01    2.54938000E-02 
   5.09479000E+00    1.90373000E-01 
   1.15879000E+00    8.52161000E-01 
S    1    1.000000
   3.25840000E-01    1.00000000E+00 
S    1    1.000000
   1.02741000E-01    1.00000000E+00 
S    1    1.000000
   3.60000000E-02    1.00000000E+00 
P    1    1.000000
   7.50000000E-01    1.00000000E+00 

7    0
S    1    1.000000
   4.56324000E+03    1.96665000E-03 
S    1    1.000000
   6.82024000E+02    1.52306000E-02 
S    1    1.000000
   1.54973000E+02    7.61269000E-02 
S    1    1.000000
   4.44553000E+01    2.60801000E-01 
S    1    1.000000
   1.30290000E+01    6.16462000E-01 
S    1    1.000000
   1.82773000E+00    2.21006000E-01 
SP   3    1.000000
   2.09642000E+01    1.14660000E-01   4.02487000E-02 
   4.80331000E+00    9.19999000E-01   2.37594000E-01 
   1.45933000E+00   -3.03068000E-03   8.15854000E-01 
SP   1    1.000000
   4.83456000E-01    1.00000000E+00   1.00000000E+00 
SP   1    1.000000
   1.45585000E-01    1.00000000E+00   1.00000000E+00 
SP   1    1.000000
   4.38000000E-02    1.00000000E+00   1.00000000E+00 
SP   1    1.000000
   1.31927711E-02    1.00000000E+00   1.00000000E+00 
D    1    1.000000
   6.26000000E-01    1.00000000E+00 

8    0
S    3    1.000000
   3.38650000E+01    2.54938000E-02 
   5.09479000E+00    1.90373000E-01 
   1.15879000E+00    8.52161000E-01 
S    1    1.000000
   3.25840000E-01    1.00000000E+00 
S    1    1.000000
   1.02741000E-01    1.00000000E+00 
S    1    1.000000
   3.60000000E-02    1.00000000E+00 
P    1    1.000000
   7.50000000E-01    1.00000000E+00 

9    0
S    1    1.000000
   4.56324000E+03    1.96665000E-03 
S    1    1.000000
   6.82024000E+02    1.52306000E-02 
S    1    1.000000
   1.54973000E+02    7.61269000E-02 
S    1    1.000000
   4.44553000E+01    2.60801000E-01 
S    1    1.000000
   1.30290000E+01    6.16462000E-01 
S    1    1.000000
   1.82773000E+00    2.21006000E-01 
SP   3    1.000000
   2.09642000E+01    1.14660000E-01   4.02487000E-02 
   4.80331000E+00    9.19999000E-01   2.37594000E-01 
   1.45933000E+00   -3.03068000E-03   8.15854000E-01 
SP   1    1.000000
   4.83456000E-01    1.00000000E+00   1.00000000E+00 
SP   1    1.000000
   1.45585000E-01    1.00000000E+00   1.00000000E+00 
SP   1    1.000000
   4.38000000E-02    1.00000000E+00   1.00000000E+00 
SP   1    1.000000
   1.31927711E-02    1.00000000E+00   1.00000000E+00 
D    1    1.000000
   6.26000000E-01    1.00000000E+00 

10    0
S    3    1.000000
   3.38650000E+01    2.54938000E-02 
   5.09479000E+00    1.90373000E-01 
   1.15879000E+00    8.52161000E-01 
S    1    1.000000
   3.25840000E-01    1.00000000E+00 
S    1    1.000000
   1.02741000E-01    1.00000000E+00 
S    1    1.000000
   3.60000000E-02    1.00000000E+00 
P    1    1.000000
   7.50000000E-01    1.00000000E+00 

11    0
S    1    1.000000
   4.56324000E+03    1.96665000E-03 
S    1    1.000000
   6.82024000E+02    1.52306000E-02 
S    1    1.000000
   1.54973000E+02    7.61269000E-02 
S    1    1.000000
   4.44553000E+01    2.60801000E-01 
S    1    1.000000
   1.30290000E+01    6.16462000E-01 
S    1    1.000000
   1.82773000E+00    2.21006000E-01 
SP   3    1.000000
   2.09642000E+01    1.14660000E-01   4.02487000E-02 
   4.80331000E+00    9.19999000E-01   2.37594000E-01 
   1.45933000E+00   -3.03068000E-03   8.15854000E-01 
SP   1    1.000000
   4.83456000E-01    1.00000000E+00   1.00000000E+00 
SP   1    1.000000
   1.45585000E-01    1.00000000E+00   1.00000000E+00 
SP   1    1.000000
   4.38000000E-02    1.00000000E+00   1.00000000E+00 
SP   1    1.000000
   1.31927711E-02    1.00000000E+00   1.00000000E+00 
D    1    1.000000
   6.26000000E-01    1.00000000E+00 

12    0
S    6    1.000000
   1.05819000E+05    7.38000000E-04 
   1.58720000E+04    5.71800000E-03 
   3.61965000E+03    2.94950000E-02 
   1.03080000E+03    1.17286000E-01 
   3.39908000E+02    3.62949000E-01 
   1.24538000E+02    5.84149000E-01 
S    3    1.000000
   1.24538000E+02    1.34177000E-01 
   4.95135000E+01    6.24250000E-01 
   2.08056000E+01    2.91756000E-01 
S    1    1.000000
   6.58346000E+00    1.00000000E+00 
S    1    1.000000
   2.56468000E+00    1.00000000E+00 
S    1    1.000000
   5.59763000E-01    1.00000000E+00 
S    1    1.000000
   1.83273000E-01    1.00000000E+00 
P    5    1.000000
   5.89776000E+02    2.39100000E-03 
   1.39849000E+02    1.85040000E-02 
   4.51413000E+01    8.13770000E-02 
   1.68733000E+01    2.21552000E-01 
   6.74110000E+00    7.72569000E-01 
P    2    1.000000
   6.74110000E+00   -1.57224400E+00 
   2.77152000E+00    9.92389000E-01 
P    1    1.000000
   1.02387000E+00    1.00000000E+00 
P    1    1.000000
   3.81368000E-01    1.00000000E+00 
P    1    1.000000
   1.09437000E-01    1.00000000E+00 
SP   1    1.000000
   4.83000000E-02    1.00000000E+00   1.00000000E+00 
SP   1    1.000000
   1.45481928E-02    1.00000000E+00   1.00000000E+00 
D    1    1.000000
   7.50000000E-01    1.00000000E+00 

[MO]
Sym=X
Ene= -0.002961
Spin=Alpha
Occup=1
     1    2.732485642074e-04
     2    2.911577741121e-04
     3    7.163602520006e-05
     4    2.406097792200e-05
     5    1.855849003483e-04
     6    3.239965605785e-17
     7   -1.320985513109e-04
     8    7.799502912856e-04
     9    6.038085072486e-03
    10    3.012041629204e-02
    11    1.034142076003e-01
    12    2.443027773045e-01
    13    8.928048988447e-02
    14    3.270367225740e-01
    15    8.730759340411e-05
    16    1.651679728045e-15
    17    6.891289505859e-05
    18    1.118488575906e-03
    19   -1.161166487397e-04
    20   -1.892027616897e-15
    21   -2.034984268639e-04
    22    1.037026985322e-03
    23    4.686682434620e-04
    24    2.167184805789e-15
    25    6.352418367633e-05
    26   -9.046384669580e-04
    27   -1.744495499595e-05
    28   -1.339748849657e-14
    29   -1.415254354757e-04
    30   -1.268269181622e-05
    31    2.306235330702e-05
    32    1.721971991041e-14
    33    8.901922226721e-05
    34    1.690944458643e-04
    35   -1.331844880659e-05
    36   -1.849844098648e-16
    37    3.483702130461e-05
    38   -3.875850272483e-16
    39    8.267201598374e-05
    40    6.399284347638e-04
    41    3.192774468551e-03
    42    1.095925834911e-02
    43    2.590939571416e-02
    44    9.474686761152e-03
    45    3.459064695081e-02
    46    4.890704582841e-06
    47    4.821598618619e-16
    48    8.883923657928e-05
    49    2.991136379791e-04
    50   -6.229342833289e-05
    51    5.760223331271e-16
    52    4.026208581801e-04
    53    8.884314898924e-06
    54   -2.971881869140e-05
    55   -1.031552594034e-15
    56   -1.958123845506e-04
    57   -4.462970773611e-04
    58   -2.913847091467e-04
    59    1.345534098908e-14
    60    2.358602377337e-04
    61   -4.175440135277e-05
    62   -5.809357959809e-05
    63   -2.869196998270e-14
    64   -7.488581745854e-05
    65    2.190214599444e-04
    66    2.578758314876e-05
    67    2.794482348479e-17
    68   -9.808391613196e-05
    69   -2.213531133824e-16
    70    4.533403741073e-05
    71    6.241398103112e-05
    72   -9.996397656795e-05
    73   -1.217238746552e-04
    74    4.019795585075e-05
    75    1.803619044875e-16
    76    6.054522632977e-05
    77    1.241289852456e-11
    78    9.609480374624e-11
    79    4.793640325560e-10
    80    1.645741048864e-09
    81    3.887832456983e-09
    82    1.410239151310e-09
    83    5.201473926202e-09
    84    1.563179052813e-05
    85   -1.261237955169e-16
    86    3.217591334708e-12
    87    6.867366244662e-11
    88   -2.823865055909e-04
    89   -7.908016797686e-16
    90    4.296089807720e-11
    91    3.464116144600e-11
    92    2.184659560197e-04
    93    3.645898980711e-16
    94    1.811883019862e-11
    95    4.571091282788e-10
    96   -4.246642618962e-04
    97   -9.103968616138e-15
    98    9.262637504569e-11
    99    2.361297514855e-11
   100    5.081417289488e-05
   101    2.543702496710e-15
   102   -1.475795750841e-12
   103   -1.283348559144e-11
   104   -1.699542729444e-04
   105   -9.873025737882e-17
   106    1.206198862967e-11
   107    9.931897093414e-17
   108    7.797242394354e-12
   109    2.422362549530e-11
   110   -1.483281587210e-11
   111    2.533384223684e-11
   112   -2.817468273804e-05
   113   -2.488749529991e-17
   114    1.330875025250e-11
   115   -8.267191093126e-05
   116   -6.399276214812e-04
   117   -3.192770411599e-03
   118   -1.095924442013e-02
   119   -2.590936281055e-02
   120   -9.474674763102e-03
   121   -3.459060290090e-02
   122    4.890712489844e-06
   123    1.149220585625e-15
   124   -8.883921946811e-05
   125   -2.991133878512e-04
   126   -6.229347523247e-05
   127    9.460019416666e-16
   128   -4.026207862551e-04
   129   -8.884398303355e-06
   130   -2.971875010571e-05
   131    1.700801388168e-15
   132    1.958123328218e-04
   133    4.462969309464e-04
   134   -2.913844626311e-04
   135    5.447213560959e-15
   136   -2.358602219447e-04
   137    4.175437343445e-05
   138   -5.809357773974e-05
   139    2.216682852758e-14
   140    7.488583373536e-05
   141   -2.190214166851e-04
   142    2.578760390922e-05
   143    2.166771016064e-16
   144    9.808391313274e-05
   145   -3.116110278642e-17
   146   -4.533399254014e-05
   147   -6.241392171374e-05
   148    9.996389039451e-05
   149    1.217237511740e-04
   150    4.019791669242e-05
   151    9.660952859309e-17
   152   -6.054520029562e-05
   153   -7.799501449990e-04
   154   -6.038083939985e-03
   155   -3.012041064276e-02
   156   -1.034141882040e-01
   157   -2.443027314872e-01
   158   -8.928047316630e-02
   159   -3.270366612286e-01
   160    8.730758591192e-05
   161   -5.554436306905e-16
   162   -6.891289340553e-05
   163   -1.118488282285e-03
   164   -1.161166840491e-04
   165    1.165396680902e-15
   166    2.034983472199e-04
   167   -1.037026783895e-03
   168    4.686681474809e-04
   169   -1.861838052467e-15
   170   -6.352422691448e-05
   171    9.046380486054e-04
   172   -1.744488485587e-05
   173   -2.426377108335e-15
   174    1.415256409247e-04
   175    1.268263670224e-05
   176    2.306237478287e-05
   177   -3.496370423414e-14
   178   -8.901930950333e-05
   179   -1.690944020977e-04
   180   -1.331846152658e-05
   181   -4.689580492092e-16
   182   -3.483701908583e-05
   183    1.192783405546e-15
   184   -2.732485087439e-04
   185   -2.911576781694e-04
   186   -7.163605477136e-05
   187   -2.406105504712e-05
   188    1.855848529934e-04
   189    2.456679968520e-16
   190    1.320985191717e-04
   191   -1.680830405761e-12
   192   -1.300729772645e-11
   193   -6.491229453239e-11
   194   -2.228786346132e-10
   195   -5.275206645638e-10
   196   -2.110399432155e-10
   197   -7.079786506289e-10
   198   -1.316761103235e-04
   199   -2.350241831744e-16
   200   -9.581840968086e-12
   201    8.659577773060e-11
   202   -9.377197144250e-04
   203   -2.497930144721e-15
   204   -3.592661437426e-11
   205   -1.255688769173e-10
   206    6.954468565003e-04
   207    9.772435853233e-16
   208    7.284626750890e-11
   209    1.557376334554e-10
   210   -5.266844295120e-04
   211    3.549907241268e-15
   212   -3.076307828682e-10
   213   -2.279082308241e-12
   214   -4.468261154997e-05
   215    2.937386084859e-14
   216    6.983518600927e-11
   217   -1.380552540915e-11
   218    4.572050327000e-04
   219    1.728992547660e-16
   220    1.498903754257e-11
   221    4.309493340131e-16
   222    1.196116410011e-13
   223    1.034375386358e-13
   224    1.269352235895e-12
   225   -4.034887470710e-12
   226    7.056353451320e-12
   227   -2.448137597792e-11
   228   -1.717173647297e-05
   229    5.889388281296e-15
   230   -2.639850561778e-13
   231   -9.378094297939e-06
   232    2.458354327668e-15
   233    2.667641344706e-13
   234    3.441951524041e-05
   235   -9.198652261864e-16
   236    1.270702794733e-12
   237   -5.612004869790e-05
   238   -8.035963886302e-16
   239   -2.508651382106e-12
   240   -1.031401038203e-05
   241    8.987039452218e-17
   242    1.614879863063e-11
   243    2.052163838541e-10
   244    3.266501928941e-05
   245    1.860743114182e-16
   246   -4.754414821659e-11
   247    8.038728621646e-11
   248    2.951818211920e-05
   249   -1.070866193035e-14
   250   -3.326335735932e-11
   251    2.740871231430e-12
   252    2.734183565074e-05
   253    4.464695062747e-16
   254   -2.618075828872e-13
   255   -1.902290413002e-16
Sym=X
Ene= -0.241385
Spin=Alpha
Occup=1
     1   -7.991212307621e-07
     2    1.159689295160e-05
     3    3.287783843252e-04
     4    1.125595830490e-04
     5   -7.686359039396e-06
     6   -3.757988658373e-16
     7    4.541529219498e-05
     8    8.013746197872e-05
     9    6.204113040058e-04
    10    3.094827151304e-03
    11    1.062634512078e-02
    12    2.510251994935e-02
    13    9.243917597501e-03
    14    3.363363508900e-02
    15    3.072684157358e-06
    16   -3.826369460913e-16
    17    8.631126363579e-05
    18   -2.930510316624e-04
    19    2.285559384521e-07
    20    1.442824107439e-15
    21    4.640090349984e-04
    22    1.309658773824e-03
    23    5.365794463385e-04
    24   -6.427351524221e-15
    25   -5.672497500280e-04
    26    5.124191317387e-04
    27    3.206044143757e-04
    28    4.077825890641e-14
    29   -2.211415511812e-04
    30    8.019621971176e-05
    31    1.078009568422e-05
    32   -1.126761328883e-13
    33    2.698098544413e-04
    34   -2.279620143393e-04
    35    5.823056258030e-06
    36    4.380470923512e-16
    37    1.255095605912e-04
    38   -2.476784634213e-16
    39   -7.800085909208e-04
    40   -6.038605216438e-03
    41   -3.012255385948e-02
    42   -1.034233365904e-01
    43   -2.443054317578e-01
    44   -8.919119412952e-02
    45   -3.271296686539e-01
    46    8.090261053539e-05
    47    4.114759469428e-16
    48   -1.329296395010e-05
    49   -1.181853201847e-03
    50   -2.437575490943e-04
    51   -1.043989186848e-15
    52    5.423665856254e-05
    53   -1.718279568701e-03
    54   -6.338866257152e-04
    55    3.999366335820e-15
    56   -5.420809123967e-04
    57    5.801051908423e-04
    58    2.644612169893e-04
    59   -3.398752437867e-14
    60    1.085999163373e-04
    61    2.466869697263e-05
    62    1.978314332257e-05
    63    1.241555934966e-13
    64   -6.322597006549e-05
    65   -1.801637488876e-05
    66    9.241080985805e-05
    67   -8.343117726913e-17
    68   -1.302349044927e-04
    69    5.156568378195e-16
    70   -2.783231080049e-04
    71   -4.348497541335e-04
    72   -4.846766972602e-05
    73    2.067918781836e-04
    74   -2.302044132072e-04
    75   -6.213639135066e-16
    76   -1.146640558668e-04
    77    2.985925018458e-05
    78    2.312736846814e-04
    79    1.153027654934e-03
    80    3.962398945147e-03
    81    9.337509537819e-03
    82    3.461444110746e-03
    83    1.263364163199e-02
    84   -3.592322460019e-12
    85   -5.161862500036e-16
    86   -9.992951113066e-05
    87   -5.176005701095e-04
    88   -3.936543474142e-11
    89    4.449543751855e-16
    90   -3.457555325075e-04
    91    1.326248730651e-03
    92    2.420455446890e-11
    93   -4.916963350682e-15
    94    8.618833413121e-04
    95   -1.433515433116e-03
    96   -4.115602703964e-11
    97    2.822315332472e-14
    98   -1.254778772332e-04
    99   -1.277840060089e-04
   100    6.881751246640e-12
   101   -1.136554895358e-13
   102    2.216800987875e-05
   103    1.766965092438e-04
   104   -2.290781278872e-11
   105   -3.277698503120e-16
   106   -1.254855286008e-04
   107   -4.012793849651e-19
   108   -3.440902288949e-05
   109   -2.553499678966e-05
   110    3.850406090926e-04
   111    5.735085791493e-05
   112   -3.578694175469e-12
   113   -3.785554972091e-16
   114   -8.084672591234e-05
   115   -7.800086490085e-04
   116   -6.038605666123e-03
   117   -3.012255610275e-02
   118   -1.034233442920e-01
   119   -2.443054499539e-01
   120   -8.919120077818e-02
   121   -3.271296930038e-01
   122   -8.090261247959e-05
   123    2.500951812514e-15
   124   -1.329297388361e-05
   125   -1.181853302336e-03
   126    2.437575428183e-04
   127   -2.362547635929e-15
   128    5.423661075685e-05
   129   -1.718279627862e-03
   130    6.338866427566e-04
   131    3.342164744030e-15
   132   -5.420808970871e-04
   133    5.801053035605e-04
   134   -2.644612682545e-04
   135   -2.827428333533e-14
   136    1.085998838803e-04
   137    2.466870559301e-05
   138   -1.978315807294e-05
   139    1.095453288878e-13
   140   -6.322595980583e-05
   141   -1.801640603843e-05
   142   -9.241080859123e-05
   143    4.082220965994e-16
   144   -1.302348983749e-04
   145   -3.471471349462e-16
   146   -2.783231302741e-04
   147   -4.348497806231e-04
   148   -4.846765921776e-05
   149    2.067919002344e-04
   150    2.302044299913e-04
   151   -4.921228511532e-17
   152   -1.146640702224e-04
   153    8.013737855941e-05
   154    6.204106582068e-04
   155    3.094823929776e-03
   156    1.062633406027e-02
   157    2.510249381918e-02
   158    9.243908048261e-03
   159    3.363360011543e-02
   160   -3.072674015594e-06
   161   -6.306335068535e-16
   162    8.631126156328e-05
   163   -2.930511644366e-04
   164   -2.285729279348e-07
   165    2.028480117375e-15
   166    4.640090844291e-04
   167    1.309658668360e-03
   168   -5.365793956617e-04
   169   -4.811793880146e-15
   170   -5.672497739423e-04
   171    5.124191597888e-04
   172   -3.206044082133e-04
   173    3.510745503868e-14
   174   -2.211415437612e-04
   175    8.019621900047e-05
   176   -1.078008838508e-05
   177   -1.000767109774e-13
   178    2.698098421409e-04
   179   -2.279620464872e-04
   180   -5.823059787066e-06
   181   -2.270333733126e-16
   182    1.255095637077e-04
   183    2.136072708177e-16
   184   -7.991513778160e-07
   185    1.159685952269e-05
   186    3.287783830893e-04
   187    1.125595859810e-04
   188    7.686379922025e-06
   189    1.771777398490e-17
   190    4.541530944794e-05
   191   -1.448033748041e-06
   192   -1.128891061689e-05
   193   -5.576724003829e-05
   194   -1.936821467047e-04
   195   -4.366454546281e-04
   196   -8.291904904673e-05
   197   -6.669810660954e-04
   198   -5.994762470946e-12
   199    1.497907381080e-16
   200   -2.811443519868e-05
   201   -1.190116536135e-04
   202   -5.712424257417e-11
   203   -3.922353788667e-16
   204    1.000303178564e-04
   205   -7.779838079530e-04
   206    4.498124360429e-11
   207    5.549823817066e-15
   208    4.177578788859e-04
   209   -9.984955005577e-04
   210   -1.020499634184e-11
   211   -3.898134515085e-14
   212    1.374834390038e-03
   213   -6.025809063199e-05
   214   -4.534891412860e-12
   215    8.058730919720e-14
   216   -5.800400562823e-04
   217   -2.043694589870e-05
   218    2.831713404481e-11
   219   -1.916179775553e-16
   220    7.816944023509e-06
   221   -4.514633585114e-16
   222    2.660377807368e-07
   223    1.361714714659e-06
   224   -6.394115151875e-06
   225    1.370777074407e-05
   226   -3.410423234040e-05
   227   -2.650814325303e-05
   228   -1.032694998692e-12
   229    6.912973997175e-16
   230   -2.050551377860e-06
   231   -5.943701930357e-13
   232   -6.377318227556e-16
   233    4.307822007877e-07
   234    2.173979050862e-12
   235    1.725218358857e-15
   236   -4.260696462866e-06
   237   -3.942446681376e-12
   238   -1.910207365564e-15
   239    3.896822192535e-05
   240   -1.696991847958e-13
   241    6.759529417707e-15
   242   -2.459958197523e-05
   243   -9.941270485757e-04
   244   -1.729011085312e-13
   245   -3.811034624673e-15
   246    2.098308342791e-04
   247   -4.376368973451e-05
   248    2.263595318845e-12
   249    1.618179167451e-14
   250    1.384853066901e-04
   251   -3.223759740171e-06
   252    1.697636428636e-12
   253    1.038629999802e-16
   254    2.791838523031e-06
   255   -2.260656400092e-17
Sym=X
Ene= -0.568748
Spin=Alpha
Occup=1
     1   -1.417377741266e-05
     2    4.804692891161e-06
     3   -1.103790208652e-04
     4   -1.046321699631e-04
     5   -3.398787265133e-06
     6   -1.457719155561e-16
     7   -3.601955950986e-05
     8   -8.292256614220e-05
     9   -6.420398626531e-04
    10   -3.202231718883e-03
    11   -1.099699886921e-02
    12   -2.596053775146e-02
    13   -9.487675008318e-03
    14   -3.484334197958e-02
    15    3.629445890488e-06
    16    3.156939666970e-16
    17   -9.213367471555e-05
    18    9.118279533100e-05
    19   -6.111015827442e-05
    20   -9.866018543738e-16
    21   -4.217218980632e-04
    22   -1.939097929161e-04
    23   -3.949435253348e-05
    24    3.221999610258e-15
    25    2.714788167979e-04
    26    8.025871835787e-04
    27   -1.064169716405e-05
    28   -6.659723265593e-15
    29    7.077967060780e-06
    30    2.516416038130e-05
    31    7.857679494299e-05
    32    6.417005451846e-14
    33    4.031196292690e-05
    34    2.074875017705e-04
    35   -3.255724136772e-05
    36   -1.142662003245e-16
    37   -1.132833981659e-04
    38   -2.244960107637e-16
    39    7.799921648177e-04
    40    6.038428157716e-03
    41    3.012202410869e-02
    42    1.034201525821e-01
    43    2.443118431506e-01
    44    8.925490017596e-02
    45    3.270853143943e-01
    46   -3.996482679149e-05
    47   -8.113436431523e-16
    48   -2.444249041770e-06
    49    1.065365392110e-03
    50    1.260798541852e-05
    51    1.956511952230e-15
    52    3.249320474376e-05
    53    9.292985929649e-04
    54    3.266634237450e-04
    55   -3.458899130714e-15
    56    1.154454773986e-04
    57   -9.221726883330e-04
    58   -1.827348750501e-04
    59    1.415635790499e-14
    60    3.727614945005e-05
    61   -5.698932447727e-05
    62   -1.329784593701e-04
    63   -1.289627955890e-13
    64   -3.314418491700e-05
    65    1.003795302226e-04
    66   -2.669400321603e-05
    67    6.973665239271e-16
    68    8.039867940527e-05
    69   -4.943300950619e-16
    70    2.741882982976e-04
    71    3.104351036907e-04
    72    2.045850712815e-05
    73   -9.683041801107e-05
    74    1.958384693677e-04
    75    1.291601426907e-16
    76    1.197243806124e-04
    77    6.901368649943e-12
    78    5.342788145029e-11
    79    2.665209461385e-10
    80    9.150083256120e-10
    81    2.161616939681e-09
    82    7.844714855510e-10
    83    2.891883718589e-09
    84   -1.434069413133e-04
    85   -4.966596735553e-16
    86    1.855132879529e-12
    87    3.700921479228e-11
    88   -7.476155819447e-04
    89    4.506967549416e-16
    90    2.255807778483e-11
    91    1.391959157668e-11
    92    3.754961644451e-04
    93    3.959057817521e-16
    94    6.443863861066e-12
    95    2.249013104983e-10
    96   -4.580774853382e-04
    97   -1.469648939758e-14
    98    4.380789060481e-11
    99    1.271099083922e-11
   100    1.357619424793e-04
   101    1.350859049677e-13
   102   -1.276552530060e-12
   103   -6.908636162118e-12
   104   -4.246624546702e-04
   105   -2.120178633849e-16
   106    6.501987701318e-12
   107   -6.531390573579e-16
   108    4.277656861815e-12
   109    1.245427304760e-11
   110   -8.837697260916e-12
   111    1.110520826801e-11
   112   -6.339652741596e-05
   113   -5.508214506519e-16
   114    7.117700762423e-12
   115   -7.799921078864e-04
   116   -6.038427716975e-03
   117   -3.012202191011e-02
   118   -1.034201450336e-01
   119   -2.443118253192e-01
   120   -8.925489367328e-02
   121   -3.270852905221e-01
   122   -3.996482252683e-05
   123    2.386741571646e-15
   124    2.444257582245e-06
   125   -1.065365259949e-03
   126    1.260795984841e-05
   127   -1.397207551214e-15
   128   -3.249316969804e-05
   129   -9.292986243249e-04
   130    3.266634542018e-04
   131    6.021726169081e-16
   132   -1.154454994675e-04
   133    9.221726192245e-04
   134   -1.827347537448e-04
   135    7.831897261670e-15
   136   -3.727614115675e-05
   137    5.698931237585e-05
   138   -1.329784590103e-04
   139   -1.079648679893e-13
   140    3.314419510598e-05
   141   -1.003795087587e-04
   142   -2.669399188057e-05
   143    1.074825280745e-15
   144   -8.039867997009e-05
   145    3.123651642699e-16
   146   -2.741882742590e-04
   147   -3.104350713889e-04
   148   -2.045854961133e-05
   149    9.683035681022e-05
   150    1.958384483705e-04
   151   -5.293738014560e-16
   152   -1.197243669640e-04
   153    8.292263862922e-05
   154    6.420404238365e-04
   155    3.202234518216e-03
   156    1.099700848052e-02
   157    2.596056045489e-02
   158    9.487683291894e-03
   159    3.484337237747e-02
   160    3.629442169679e-06
   161   -1.182211960251e-16
   162    9.213367507944e-05
   163   -9.118264691125e-05
   164   -6.111017588090e-05
   165   -3.178070110134e-16
   166    4.217218553717e-04
   167    1.939098848139e-04
   168   -3.949439708154e-05
   169   -1.293074966739e-15
   170   -2.714788345706e-04
   171   -8.025873881159e-04
   172   -1.064166412422e-05
   173   -2.289194164324e-16
   174   -7.077865747357e-06
   175   -2.516418702489e-05
   176    7.857680552504e-05
   177    4.454142930852e-14
   178   -4.031201104946e-05
   179   -2.074874785174e-04
   180   -3.255724761912e-05
   181    2.620509563933e-16
   182    1.132833984784e-04
   183    7.299698537543e-16
   184    1.417380510789e-05
   185   -4.804645187240e-06
   186    1.103790045515e-04
   187    1.046321342064e-04
   188   -3.398810926539e-06
   189    4.648065333388e-16
   190    3.601954318367e-05
   191   -8.329769472564e-13
   192   -6.449511915677e-12
   193   -3.218622993436e-11
   194   -1.105067395660e-10
   195   -2.616104843431e-10
   196   -1.049400529460e-10
   197   -3.508976500128e-10
   198    4.772078123652e-05
   199   -3.896206837775e-16
   200   -4.682462711499e-12
   201    4.356068181053e-11
   202   -1.246032753817e-04
   203   -4.678874336740e-16
   204   -1.825003276584e-11
   205   -6.006082196462e-11