[Molden Format]
[Atoms] (Angs)
  H      1    1     -2.14003202      0.00000000      0.38146042
  C      2    6     -1.21205832      0.00000000     -0.17180643
  C      3    6     -1.20429565      0.00000000     -1.56369320
  H      4    1     -2.14371879      0.00000000     -2.09923439
  C      5    6     -0.00000000      0.00000000     -2.26269040
  H      6    1     -0.00000000      0.00000000     -3.34354440
  C      7    6      1.20429565      0.00000000     -1.56369320
  H      8    1      2.14371879      0.00000000     -2.09923439
  C      9    6      1.21205832     -0.00000000     -0.17180643
  H     10    1      2.14003202     -0.00000000      0.38146042
  C     11    6      0.00000000     -0.00000000      0.51110416
 Cl     12   17      0.00000000     -0.00000000      2.24203561
[GTO]
1    0
S    3    1.000000
   3.38650000E+01    2.54938000E-02 
   5.09479000E+00    1.90373000E-01 
   1.15879000E+00    8.52161000E-01 
S    1    1.000000
   3.25840000E-01    1.00000000E+00 
S    1    1.000000
   1.02741000E-01    1.00000000E+00 
S    1    1.000000
   3.60000000E-02    1.00000000E+00 
P    1    1.000000
   7.50000000E-01    1.00000000E+00 

2    0
S    1    1.000000
   4.56324000E+03    1.96665000E-03 
S    1    1.000000
   6.82024000E+02    1.52306000E-02 
S    1    1.000000
   1.54973000E+02    7.61269000E-02 
S    1    1.000000
   4.44553000E+01    2.60801000E-01 
S    1    1.000000
   1.30290000E+01    6.16462000E-01 
S    1    1.000000
   1.82773000E+00    2.21006000E-01 
SP   3    1.000000
   2.09642000E+01    1.14660000E-01   4.02487000E-02 
   4.80331000E+00    9.19999000E-01   2.37594000E-01 
   1.45933000E+00   -3.03068000E-03   8.15854000E-01 
SP   1    1.000000
   4.83456000E-01    1.00000000E+00   1.00000000E+00 
SP   1    1.000000
   1.45585000E-01    1.00000000E+00   1.00000000E+00 
SP   1    1.000000
   4.38000000E-02    1.00000000E+00   1.00000000E+00 
SP   1    1.000000
   1.31927711E-02    1.00000000E+00   1.00000000E+00 
D    1    1.000000
   6.26000000E-01    1.00000000E+00 

3    0
S    1    1.000000
   4.56324000E+03    1.96665000E-03 
S    1    1.000000
   6.82024000E+02    1.52306000E-02 
S    1    1.000000
   1.54973000E+02    7.61269000E-02 
S    1    1.000000
   4.44553000E+01    2.60801000E-01 
S    1    1.000000
   1.30290000E+01    6.16462000E-01 
S    1    1.000000
   1.82773000E+00    2.21006000E-01 
SP   3    1.000000
   2.09642000E+01    1.14660000E-01   4.02487000E-02 
   4.80331000E+00    9.19999000E-01   2.37594000E-01 
   1.45933000E+00   -3.03068000E-03   8.15854000E-01 
SP   1    1.000000
   4.83456000E-01    1.00000000E+00   1.00000000E+00 
SP   1    1.000000
   1.45585000E-01    1.00000000E+00   1.00000000E+00 
SP   1    1.000000
   4.38000000E-02    1.00000000E+00   1.00000000E+00 
SP   1    1.000000
   1.31927711E-02    1.00000000E+00   1.00000000E+00 
D    1    1.000000
   6.26000000E-01    1.00000000E+00 

4    0
S    3    1.000000
   3.38650000E+01    2.54938000E-02 
   5.09479000E+00    1.90373000E-01 
   1.15879000E+00    8.52161000E-01 
S    1    1.000000
   3.25840000E-01    1.00000000E+00 
S    1    1.000000
   1.02741000E-01    1.00000000E+00 
S    1    1.000000
   3.60000000E-02    1.00000000E+00 
P    1    1.000000
   7.50000000E-01    1.00000000E+00 

5    0
S    1    1.000000
   4.56324000E+03    1.96665000E-03 
S    1    1.000000
   6.82024000E+02    1.52306000E-02 
S    1    1.000000
   1.54973000E+02    7.61269000E-02 
S    1    1.000000
   4.44553000E+01    2.60801000E-01 
S    1    1.000000
   1.30290000E+01    6.16462000E-01 
S    1    1.000000
   1.82773000E+00    2.21006000E-01 
SP   3    1.000000
   2.09642000E+01    1.14660000E-01   4.02487000E-02 
   4.80331000E+00    9.19999000E-01   2.37594000E-01 
   1.45933000E+00   -3.03068000E-03   8.15854000E-01 
SP   1    1.000000
   4.83456000E-01    1.00000000E+00   1.00000000E+00 
SP   1    1.000000
   1.45585000E-01    1.00000000E+00   1.00000000E+00 
SP   1    1.000000
   4.38000000E-02    1.00000000E+00   1.00000000E+00 
SP   1    1.000000
   1.31927711E-02    1.00000000E+00   1.00000000E+00 
D    1    1.000000
   6.26000000E-01    1.00000000E+00 

6    0
S    3    1.000000
   3.38650000E+01    2.54938000E-02 
   5.09479000E+00    1.90373000E-01 
   1.15879000E+00    8.52161000E-01 
S    1    1.000000
   3.25840000E-01    1.00000000E+00 
S    1    1.000000
   1.02741000E-01    1.00000000E+00 
S    1    1.000000
   3.60000000E-02    1.00000000E+00 
P    1    1.000000
   7.50000000E-01    1.00000000E+00 

7    0
S    1    1.000000
   4.56324000E+03    1.96665000E-03 
S    1    1.000000
   6.82024000E+02    1.52306000E-02 
S    1    1.000000
   1.54973000E+02    7.61269000E-02 
S    1    1.000000
   4.44553000E+01    2.60801000E-01 
S    1    1.000000
   1.30290000E+01    6.16462000E-01 
S    1    1.000000
   1.82773000E+00    2.21006000E-01 
SP   3    1.000000
   2.09642000E+01    1.14660000E-01   4.02487000E-02 
   4.80331000E+00    9.19999000E-01   2.37594000E-01 
   1.45933000E+00   -3.03068000E-03   8.15854000E-01 
SP   1    1.000000
   4.83456000E-01    1.00000000E+00   1.00000000E+00 
SP   1    1.000000
   1.45585000E-01    1.00000000E+00   1.00000000E+00 
SP   1    1.000000
   4.38000000E-02    1.00000000E+00   1.00000000E+00 
SP   1    1.000000
   1.31927711E-02    1.00000000E+00   1.00000000E+00 
D    1    1.000000
   6.26000000E-01    1.00000000E+00 

8    0
S    3    1.000000
   3.38650000E+01    2.54938000E-02 
   5.09479000E+00    1.90373000E-01 
   1.15879000E+00    8.52161000E-01 
S    1    1.000000
   3.25840000E-01    1.00000000E+00 
S    1    1.000000
   1.02741000E-01    1.00000000E+00 
S    1    1.000000
   3.60000000E-02    1.00000000E+00 
P    1    1.000000
   7.50000000E-01    1.00000000E+00 

9    0
S    1    1.000000
   4.56324000E+03    1.96665000E-03 
S    1    1.000000
   6.82024000E+02    1.52306000E-02 
S    1    1.000000
   1.54973000E+02    7.61269000E-02 
S    1    1.000000
   4.44553000E+01    2.60801000E-01 
S    1    1.000000
   1.30290000E+01    6.16462000E-01 
S    1    1.000000
   1.82773000E+00    2.21006000E-01 
SP   3    1.000000
   2.09642000E+01    1.14660000E-01   4.02487000E-02 
   4.80331000E+00    9.19999000E-01   2.37594000E-01 
   1.45933000E+00   -3.03068000E-03   8.15854000E-01 
SP   1    1.000000
   4.83456000E-01    1.00000000E+00   1.00000000E+00 
SP   1    1.000000
   1.45585000E-01    1.00000000E+00   1.00000000E+00 
SP   1    1.000000
   4.38000000E-02    1.00000000E+00   1.00000000E+00 
SP   1    1.000000
   1.31927711E-02    1.00000000E+00   1.00000000E+00 
D    1    1.000000
   6.26000000E-01    1.00000000E+00 

10    0
S    3    1.000000
   3.38650000E+01    2.54938000E-02 
   5.09479000E+00    1.90373000E-01 
   1.15879000E+00    8.52161000E-01 
S    1    1.000000
   3.25840000E-01    1.00000000E+00 
S    1    1.000000
   1.02741000E-01    1.00000000E+00 
S    1    1.000000
   3.60000000E-02    1.00000000E+00 
P    1    1.000000
   7.50000000E-01    1.00000000E+00 

11    0
S    1    1.000000
   4.56324000E+03    1.96665000E-03 
S    1    1.000000
   6.82024000E+02    1.52306000E-02 
S    1    1.000000
   1.54973000E+02    7.61269000E-02 
S    1    1.000000
   4.44553000E+01    2.60801000E-01 
S    1    1.000000
   1.30290000E+01    6.16462000E-01 
S    1    1.000000
   1.82773000E+00    2.21006000E-01 
SP   3    1.000000
   2.09642000E+01    1.14660000E-01   4.02487000E-02 
   4.80331000E+00    9.19999000E-01   2.37594000E-01 
   1.45933000E+00   -3.03068000E-03   8.15854000E-01 
SP   1    1.000000
   4.83456000E-01    1.00000000E+00   1.00000000E+00 
SP   1    1.000000
   1.45585000E-01    1.00000000E+00   1.00000000E+00 
SP   1    1.000000
   4.38000000E-02    1.00000000E+00   1.00000000E+00 
SP   1    1.000000
   1.31927711E-02    1.00000000E+00   1.00000000E+00 
D    1    1.000000
   6.26000000E-01    1.00000000E+00 

12    0
S    6    1.000000
   1.05819000E+05    7.38000000E-04 
   1.58720000E+04    5.71800000E-03 
   3.61965000E+03    2.94950000E-02 
   1.03080000E+03    1.17286000E-01 
   3.39908000E+02    3.62949000E-01 
   1.24538000E+02    5.84149000E-01 
S    3    1.000000
   1.24538000E+02    1.34177000E-01 
   4.95135000E+01    6.24250000E-01 
   2.08056000E+01    2.91756000E-01 
S    1    1.000000
   6.58346000E+00    1.00000000E+00 
S    1    1.000000
   2.56468000E+00    1.00000000E+00 
S    1    1.000000
   5.59763000E-01    1.00000000E+00 
S    1    1.000000
   1.83273000E-01    1.00000000E+00 
P    5    1.000000
   5.89776000E+02    2.39100000E-03 
   1.39849000E+02    1.85040000E-02 
   4.51413000E+01    8.13770000E-02 
   1.68733000E+01    2.21552000E-01 
   6.74110000E+00    7.72569000E-01 
P    2    1.000000
   6.74110000E+00   -1.57224400E+00 
   2.77152000E+00    9.92389000E-01 
P    1    1.000000
   1.02387000E+00    1.00000000E+00 
P    1    1.000000
   3.81368000E-01    1.00000000E+00 
P    1    1.000000
   1.09437000E-01    1.00000000E+00 
SP   1    1.000000
   4.83000000E-02    1.00000000E+00   1.00000000E+00 
SP   1    1.000000
   1.45481928E-02    1.00000000E+00   1.00000000E+00 
D    1    1.000000
   7.50000000E-01    1.00000000E+00 

[MO]
Sym=X
Ene= -0.787856
Spin=Alpha
Occup=1
     1    1.840949193963e-05
     2    6.492896924856e-05
     3   -2.470126644544e-04
     4   -1.419369362826e-04
     5    7.654158376173e-05
     6    1.996510260615e-16
     7    7.349009082982e-06
     8   -4.550627042612e-05
     9   -3.523976633436e-04
    10   -1.757260083109e-03
    11   -6.036517970445e-03
    12   -1.423699140235e-02
    13   -5.199185769444e-03
    14   -1.917858838962e-02
    15    1.110800643676e-04
    16   -7.737722801849e-16
    17    3.758338719238e-05
    18    2.515751630411e-04
    19    4.013804284744e-04
    20    1.014865235187e-15
    21    3.297184486809e-04
    22   -8.711954852078e-04
    23   -6.267741963817e-04
    24   -6.211705169597e-15
    25   -1.612366803834e-04
    26   -5.425002574596e-04
    27    4.387168618196e-04
    28    2.995491016039e-14
    29    1.211842134025e-03
    30   -2.433660811684e-04
    31   -2.311230633185e-04
    32   -1.076507645583e-13
    33   -8.452104108775e-04
    34   -1.359328675421e-04
    35    2.857994773868e-04
    36    2.030336876245e-16
    37    4.721979921401e-05
    38   -4.767484696507e-16
    39    5.381923249806e-06
    40    4.171920741793e-05
    41    2.077252727817e-04
    42    7.147240090003e-04
    43    1.674136405726e-03
    44    5.580443893471e-04
    45    2.293510267043e-03
    46   -1.131608119803e-05
    47    8.805493138098e-17
    48   -3.709170808326e-05
    49    8.522830410312e-05
    50    5.143740415179e-05
    51   -1.659235889073e-15
    52    1.787176061695e-04
    53    4.875240739282e-04
    54    4.904100824140e-04
    55    4.091626413719e-15
    56   -3.045389403961e-06
    57    1.302859047883e-03
    58   -4.289287348239e-04
    59   -2.201992797295e-14
    60    6.901543963139e-04
    61   -1.071050415989e-05
    62    1.774962647982e-04
    63    9.758605658761e-14
    64    3.020521527024e-04
    65    6.586659511983e-05
    66    5.502583404661e-05
    67    1.843989638083e-16
    68   -2.578509579180e-05
    69    1.964118599494e-16
    70   -1.631596452687e-06
    71    1.226945157055e-04
    72    5.610304901547e-05
    73   -4.769530938626e-05
    74    8.895120529804e-06
    75   -2.306866524898e-16
    76    2.813797928436e-05
    77    1.021921671018e-06
    78    7.957513652775e-06
    79    3.936028669668e-05
    80    1.364331873319e-04
    81    3.101461131948e-04
    82    6.373437793990e-05
    83    4.572940938012e-04
    84   -3.444738429864e-13
    85   -5.706097391326e-16
    86   -4.651405951500e-06
    87    1.430316510168e-04
    88   -4.193599966451e-12
    89    3.527642189823e-17
    90    4.814717728855e-05
    91   -9.847897541073e-04
    92    2.616146727646e-12
    93   -3.025599690543e-15
    94   -4.600901541361e-04
    95    1.656321116759e-03
    96   -2.216617825702e-12
    97    1.687720360021e-14
    98   -5.576188437011e-05
    99    1.404799170585e-04
   100    8.563862661205e-13
   101   -8.372116591961e-14
   102   -1.491169117448e-04
   103   -2.827053603054e-05
   104   -2.431697758450e-12
   105   -3.178136564621e-16
   106    1.827483853515e-05
   107   -3.674476935160e-17
   108    1.099627501356e-05
   109   -5.076704493698e-06
   110   -1.698340243590e-04
   111   -7.761228078431e-05
   112   -3.829858977986e-13
   113   -2.835714558757e-16
   114    1.250933994167e-05
   115    5.381917266998e-06
   116    4.171916110655e-05
   117    2.077250417526e-04
   118    7.147232158329e-04
   119    1.674134531736e-03
   120    5.580437046163e-04
   121    2.293507759390e-03
   122    1.131608100979e-05
   123   -3.638558380668e-16
   124   -3.709170920755e-05
   125    8.522829351690e-05
   126   -5.143740487871e-05
   127   -3.586847195924e-16
   128    1.787176008191e-04
   129    4.875240681816e-04
   130   -4.904100806820e-04
   131    1.691019977220e-15
   132   -3.045387665073e-06
   133    1.302859055942e-03
   134    4.289287353677e-04
   135   -1.784570440386e-14
   136    6.901543951850e-04
   137   -1.071050350333e-05
   138   -1.774962662807e-04
   139    8.347929859210e-14
   140    3.020521542475e-04
   141    6.586659167661e-05
   142   -5.502583388406e-05
   143    1.106979074425e-16
   144   -2.578509502955e-05
   145    2.359247709678e-16
   146   -1.631598764159e-06
   147    1.226945129435e-04
   148    5.610304985160e-05
   149   -4.769530894800e-05
   150   -8.895118768930e-06
   151   -1.694017435728e-16
   152    2.813797774621e-05
   153   -4.550627990365e-05
   154   -3.523977367101e-04
   155   -1.757260449100e-03
   156   -6.036519227025e-03
   157   -1.423699437088e-02
   158   -5.199186854275e-03
   159   -1.917859236299e-02
   160   -1.110800632238e-04
   161   -5.970210531764e-16
   162    3.758338689462e-05
   163    2.515751481399e-04
   164   -4.013804303707e-04
   165    3.707560445026e-16
   166    3.297184539254e-04
   167   -8.711954975928e-04
   168    6.267742022060e-04
   169   -4.708733295580e-15
   170   -1.612366829222e-04
   171   -5.425002213534e-04
   172   -4.387168701808e-04
   173    2.674382919775e-14
   174    1.211842144247e-03
   175   -2.433660804813e-04
   176    2.311230640077e-04
   177   -9.411675661740e-14
   178   -8.452104125553e-04
   179   -1.359328710282e-04
   180   -2.857994777730e-04
   181    2.748695962920e-16
   182    4.721979946618e-05
   183    9.332522649306e-16
   184    1.840948851781e-05
   185    6.492896559399e-05
   186   -2.470126649719e-04
   187   -1.419369359548e-04
   188   -7.654158142629e-05
   189   -2.297669837600e-16
   190    7.349010992923e-06
   191    1.107531212531e-03
   192    8.574362139046e-03
   193    4.277071258113e-02
   194    1.468543795859e-01
   195    3.468528104188e-01
   196    1.262055035756e-01
   197    4.646989842205e-01
   198   -6.894061616214e-13
   199   -9.840592100139e-16
   200    1.264902659855e-03
   201    1.884990627191e-03
   202   -6.411309281887e-12
   203   -7.466080133592e-16
   204   -7.822661516490e-04
   205    2.211693426695e-03
   206    5.168314045431e-12
   207    3.271076343992e-15
   208    2.798967006799e-05
   209   -2.548733434508e-03
   210   -1.303388846485e-11
   211   -3.216099440536e-14
   212   -5.348863750134e-04
   213   -2.199716816369e-04
   214   -6.790923662336e-13
   215    1.069169373379e-13
   216    1.328941865197e-03
   217   -4.061699840007e-05
   218    3.163635706954e-12
   219   -2.851381518202e-16
   220    2.355486173842e-04
   221   -1.551704757383e-16
   222   -2.046881736316e-05
   223   -6.125594989881e-05
   224    1.333151412575e-04
   225   -5.938101722401e-05
   226    2.023629798813e-04
   227    5.732570942191e-06
   228   -1.404883557864e-13
   229   -2.374033897461e-15
   230    1.110115074362e-04
   231   -8.103649934344e-14
   232   -2.929825449206e-15
   233    4.816675873274e-05
   234    2.620063373779e-13
   235    3.783810584763e-15
   236   -4.151835938099e-05
   237   -4.776411327859e-13
   238   -4.475131759396e-15
   239   -4.703762463433e-04
   240    6.687813991661e-14
   241    6.592983229719e-15
   242    3.463450852430e-04
   243   -1.032570669548e-04
   244    5.413798904340e-13
   245   -3.685858197661e-15
   246   -7.888718486167e-05
   247    6.910693556282e-04
   248    2.735434364506e-13
   249    3.448211385683e-15
   250   -3.510295463320e-04
   251    2.645464951618e-04
   252    1.896828965016e-13
   253    2.754875567911e-16
   254   -3.082659196251e-06
   255    1.065832795067e-16
Sym=X
Ene= 0.787856
Spin=Alpha
Occup=0
     1   -8.870072197341e-14
     2    1.964956418722e-13
     3   -2.425769594265e-12
     4   -6.130771709633e-12
     5    4.413971245110e-14
     6    1.120794974772e-02
     7    6.493915938349e-17
     8   -4.225435321697e-16
     9   -1.136653345757e-15
    10    1.071230425174e-16
    11   -1.044242562286e-14
    12   -1.028907773087e-14
    13   -1.436762357161e-14
    14   -4.205602032643e-14
    15   -4.152149074579e-14
    16    1.020877246987e-01
    17   -6.395251892569e-14
    18    2.515047086569e-13
    19   -1.626940346778e-13
    20    1.660439046275e-01
    21    8.727266760110e-14
    22    2.426366327094e-13
    23    5.745637184835e-13
    24    3.060640364670e-01
    25   -1.854402732009e-12
    26    2.087440391454e-11
    27    5.324962672746e-11
    28    2.318587481362e-01
    29    9.729954381824e-11
    30    1.458313623459e-11
    31    3.090758607331e-11
    32   -6.936159983509e-02
    33    3.674969598567e-11
    34   -1.618429693344e-14
    35    3.596522836281e-14
    36   -1.746950944653e-02
    37   -7.331559269894e-14
    38   -1.970348121297e-02
    39    2.989130284673e-16
    40   -7.519245641659e-16
    41    1.350800266696e-15
    42   -4.330200828728e-15
    43    1.736844405687e-14
    44    6.471035315009e-14
    45   -4.306083994611e-14
    46    3.119723865110e-14
    47    3.478492153847e-02
    48    2.122373539315e-14
    49   -2.774337048016e-13
    50    1.918611144973e-13
    51    5.623975285970e-02
    52    1.088466669613e-13
    53    1.488706394066e-13
    54   -1.381628401944e-12
    55    6.382591980952e-02
    56   -1.637305309753e-12
    57   -5.041844203188e-12
    58   -5.050886239259e-11
    59   -4.761478632823e-03
    60    8.719937411710e-11
    61    6.270165563054e-12
    62   -1.852325136006e-11
    63    1.480571797775e-02
    64   -5.052513224773e-12
    65   -8.521891015009e-15
    66    1.405569108146e-14
    67    2.446134774818e-02
    68   -1.895502271527e-15
    69   -1.434951713149e-02
    70   -1.250221092374e-13
    71   -8.273757780561e-13
    72   -4.310755456820e-14
    73    2.751535204874e-11
    74   -6.424784372698e-14
    75    3.536456210477e-03
    76    3.563941765050e-14
    77   -5.719185161379e-16
    78    8.582237724594e-16
    79   -1.573491257320e-15
    80   -3.965008784463e-16
    81   -9.200760402124e-16
    82    2.125927063157e-14
    83   -1.907998209970e-14
    84   -5.724220387362e-14
    85   -1.012914840900e-01
    86   -2.011925808408e-13
    87   -1.529494154111e-14
    88   -1.140330877116e-13
    89   -1.633412646860e-01
    90   -2.860242701921e-13
    91   -6.237151499439e-14
    92   -4.274200742048e-13
    93   -2.604037959492e-01
    94    1.294946479638e-13
    95    1.768325564067e-10
    96   -4.074295581924e-11
    97   -1.330568858967e-01
    98    1.143950495984e-11
    99    1.263894395795e-11
   100    1.756075419152e-11
   101    2.218544405933e-03
   102   -1.013570385983e-11
   103   -2.012999899770e-14
   104    4.609419147510e-15
   105    3.212426659215e-03
   106    9.022156813331e-15
   107    8.506565185444e-13
   108    1.217696219586e-13
   109    8.299633543837e-13
   110   -1.585720691715e-12
   111   -2.400729108879e-12
   112   -2.093384002394e-14
   113   -1.015727613088e-02
   114    7.174824442080e-14
   115    6.478396606360e-17
   116   -1.263624625688e-15
   117   -2.642019560122e-15
   118   -1.484268033282e-14
   119   -2.424805232937e-14
   120   -3.649111724547e-15
   121   -9.769608512841e-14
   122   -9.390738510986e-15
   123    3.478492154193e-02
   124    5.287830060501e-14
   125    2.542898701759e-13
   126    9.956951325908e-14
   127    5.623975286717e-02
   128    3.520054163336e-14
   129    8.010924062640e-13
   130   -2.883514959677e-13
   131    6.382591981763e-02
   132   -1.238725281771e-12
   133    4.372906198550e-11
   134    9.129867497867e-12
   135   -4.761478507882e-03
   136    1.693953497360e-11
   137    1.280295201850e-11
   138   -1.405165681775e-11
   139    1.480571828919e-02
   140    1.228500394699e-11
   141    1.360567173737e-14
   142    1.269109141373e-14
   143    2.446134774717e-02
   144   -8.859909390571e-16
   145    1.434951713173e-02
   146    2.813505966791e-15
   147   -6.087698649926e-13
   148    5.622479190769e-13
   149   -2.079532932173e-12
   150    2.624714467845e-14
   151    3.536456211365e-03
   152    2.645661326801e-15
   153   -2.819833694954e-16
   154    2.047201164260e-16
   155    1.830907548509e-15
   156    2.690753487346e-15
   157    1.239894470909e-14
   158    2.027949088980e-14
   159    1.395697243614e-14
   160   -1.822489769089e-14
   161    1.020877246945e-01
   162   -1.010837409819e-13
   163   -1.291771263848e-13
   164   -1.518708664822e-13
   165    1.660439046199e-01
   166   -1.032581819025e-13
   167    2.173379444802e-12
   168    4.897264402682e-14
   169    3.060640364597e-01
   170   -9.559401181303e-13
   171   -1.901764348106e-10
   172    3.879745479438e-11
   173    2.318587480044e-01
   174    1.000381701914e-11
   175    7.825775322644e-12
   176    3.194171314378e-12
   177   -6.936160009409e-02
   178   -1.873974455001e-12
   179    4.436200996700e-14
   180    2.292927542499e-14
   181   -1.746950944754e-02
   182   -6.818264889499e-15
   183    1.970348121297e-02
   184   -1.203620904992e-13
   185    1.981323312868e-13
   186   -3.869944987834e-12
   187   -1.698156051022e-11
   188   -6.314731094932e-15
   189    1.120794974683e-02
   190   -1.257302756012e-14
   191   -3.030400507430e-16
   192    2.505522106841e-15
   193    3.643036205559e-15
   194    2.615356944306e-14
   195    4.329316401451e-14
   196    2.813862286160e-14
   197    1.514748072171e-13
   198    2.839137351819e-14
   199   -3.002596935752e-01
   200   -1.661993590881e-13
   201   -4.389143465243e-13
   202    7.949610479239e-14
   203   -3.867261176670e-01
   204   -4.105473997692e-13
   205   -2.417989222673e-12
   206   -7.531847668794e-13
   207   -4.787081885717e-01
   208   -4.903006907804e-13
   209   -4.873310013180e-11
   210    9.918512983944e-11
   211   -2.546027462951e-01
   212   -2.995320734151e-11
   213    1.354695941482e-11
   214   -2.760447747679e-11
   215    1.199815908422e-01
   216    9.419258331196e-13
   217   -2.794032855589e-14
   218    3.602417751484e-14
   219   -2.522091315798e-02
   220   -1.022833688430e-14
   221   -9.305822386508e-13
   222   -4.192703800185e-15
   223   -1.768922642710e-14
   224    3.369880648725e-14
   225    7.196289114735e-14
   226   -2.117740211997e-13
   227   -3.047150998590e-13
   228    3.537512920763e-14
   229   -5.320234082263e-02
   230    4.718485663355e-13
   231    4.056785082075e-15
   232   -1.260870141331e-02
   233    1.103136253452e-13
   234   -8.015249772218e-14
   235    4.189643305771e-02
   236   -3.620539439828e-13
   237   -9.297729992254e-15
   238    9.938595846669e-02
   239   -7.221447402344e-13
   240   -7.336240222287e-13
   241    1.445180483608e-01
   242   -2.457626188402e-12
   243    1.894502993126e-11
   244   -4.413021913506e-12
   245    4.610271940263e-02
   246    2.313295813990e-13
   247   -7.759111643795e-11
   248    1.363137952291e-11
   249   -5.151819511760e-03
   250    1.528000089741e-11
   251   -2.951974754821e-13
   252   -2.550719443399e-14
   253    4.325359928235e-02
   254    3.854386321683e-14
   255   -9.448239167658e-13
[5D]
