[Molden Format]
[Atoms] (Angs)
  H      1    1      2.47503475      0.00000000     -0.00000000
  C      2    6      1.39359294      0.00000000     -0.00000000
  C      3    6      0.69679647      1.20688689      0.00000000
  H      4    1      1.23751738      2.14344297      0.00000000
  C      5    6     -0.69679647      1.20688689      0.00000000
  H      6    1     -1.23751738      2.14344297      0.00000000
  C      7    6     -1.39359294     -0.00000000      0.00000000
  H      8    1     -2.47503475     -0.00000000      0.00000000
  C      9    6     -0.69679647     -1.20688689     -0.00000000
  H     10    1     -1.23751738     -2.14344297     -0.00000000
  C     11    6      0.69679647     -1.20688689     -0.00000000
  H     12    1      1.23751738     -2.14344297     -0.00000000
[GTO]
1    0
S    3    1.000000
   3.38650000E+01    2.54938000E-02 
   5.09479000E+00    1.90373000E-01 
   1.15879000E+00    8.52161000E-01 
S    1    1.000000
   3.25840000E-01    1.00000000E+00 
S    1    1.000000
   1.02741000E-01    1.00000000E+00 
S    1    1.000000
   3.60000000E-02    1.00000000E+00 
P    1    1.000000
   7.50000000E-01    1.00000000E+00 

2    0
S    1    1.000000
   4.56324000E+03    1.96665000E-03 
S    1    1.000000
   6.82024000E+02    1.52306000E-02 
S    1    1.000000
   1.54973000E+02    7.61269000E-02 
S    1    1.000000
   4.44553000E+01    2.60801000E-01 
S    1    1.000000
   1.30290000E+01    6.16462000E-01 
S    1    1.000000
   1.82773000E+00    2.21006000E-01 
SP   3    1.000000
   2.09642000E+01    1.14660000E-01   4.02487000E-02 
   4.80331000E+00    9.19999000E-01   2.37594000E-01 
   1.45933000E+00   -3.03068000E-03   8.15854000E-01 
SP   1    1.000000
   4.83456000E-01    1.00000000E+00   1.00000000E+00 
SP   1    1.000000
   1.45585000E-01    1.00000000E+00   1.00000000E+00 
SP   1    1.000000
   4.38000000E-02    1.00000000E+00   1.00000000E+00 
SP   1    1.000000
   1.31927711E-02    1.00000000E+00   1.00000000E+00 
D    1    1.000000
   6.26000000E-01    1.00000000E+00 

3    0
S    1    1.000000
   4.56324000E+03    1.96665000E-03 
S    1    1.000000
   6.82024000E+02    1.52306000E-02 
S    1    1.000000
   1.54973000E+02    7.61269000E-02 
S    1    1.000000
   4.44553000E+01    2.60801000E-01 
S    1    1.000000
   1.30290000E+01    6.16462000E-01 
S    1    1.000000
   1.82773000E+00    2.21006000E-01 
SP   3    1.000000
   2.09642000E+01    1.14660000E-01   4.02487000E-02 
   4.80331000E+00    9.19999000E-01   2.37594000E-01 
   1.45933000E+00   -3.03068000E-03   8.15854000E-01 
SP   1    1.000000
   4.83456000E-01    1.00000000E+00   1.00000000E+00 
SP   1    1.000000
   1.45585000E-01    1.00000000E+00   1.00000000E+00 
SP   1    1.000000
   4.38000000E-02    1.00000000E+00   1.00000000E+00 
SP   1    1.000000
   1.31927711E-02    1.00000000E+00   1.00000000E+00 
D    1    1.000000
   6.26000000E-01    1.00000000E+00 

4    0
S    3    1.000000
   3.38650000E+01    2.54938000E-02 
   5.09479000E+00    1.90373000E-01 
   1.15879000E+00    8.52161000E-01 
S    1    1.000000
   3.25840000E-01    1.00000000E+00 
S    1    1.000000
   1.02741000E-01    1.00000000E+00 
S    1    1.000000
   3.60000000E-02    1.00000000E+00 
P    1    1.000000
   7.50000000E-01    1.00000000E+00 

5    0
S    1    1.000000
   4.56324000E+03    1.96665000E-03 
S    1    1.000000
   6.82024000E+02    1.52306000E-02 
S    1    1.000000
   1.54973000E+02    7.61269000E-02 
S    1    1.000000
   4.44553000E+01    2.60801000E-01 
S    1    1.000000
   1.30290000E+01    6.16462000E-01 
S    1    1.000000
   1.82773000E+00    2.21006000E-01 
SP   3    1.000000
   2.09642000E+01    1.14660000E-01   4.02487000E-02 
   4.80331000E+00    9.19999000E-01   2.37594000E-01 
   1.45933000E+00   -3.03068000E-03   8.15854000E-01 
SP   1    1.000000
   4.83456000E-01    1.00000000E+00   1.00000000E+00 
SP   1    1.000000
   1.45585000E-01    1.00000000E+00   1.00000000E+00 
SP   1    1.000000
   4.38000000E-02    1.00000000E+00   1.00000000E+00 
SP   1    1.000000
   1.31927711E-02    1.00000000E+00   1.00000000E+00 
D    1    1.000000
   6.26000000E-01    1.00000000E+00 

6    0
S    3    1.000000
   3.38650000E+01    2.54938000E-02 
   5.09479000E+00    1.90373000E-01 
   1.15879000E+00    8.52161000E-01 
S    1    1.000000
   3.25840000E-01    1.00000000E+00 
S    1    1.000000
   1.02741000E-01    1.00000000E+00 
S    1    1.000000
   3.60000000E-02    1.00000000E+00 
P    1    1.000000
   7.50000000E-01    1.00000000E+00 

7    0
S    1    1.000000
   4.56324000E+03    1.96665000E-03 
S    1    1.000000
   6.82024000E+02    1.52306000E-02 
S    1    1.000000
   1.54973000E+02    7.61269000E-02 
S    1    1.000000
   4.44553000E+01    2.60801000E-01 
S    1    1.000000
   1.30290000E+01    6.16462000E-01 
S    1    1.000000
   1.82773000E+00    2.21006000E-01 
SP   3    1.000000
   2.09642000E+01    1.14660000E-01   4.02487000E-02 
   4.80331000E+00    9.19999000E-01   2.37594000E-01 
   1.45933000E+00   -3.03068000E-03   8.15854000E-01 
SP   1    1.000000
   4.83456000E-01    1.00000000E+00   1.00000000E+00 
SP   1    1.000000
   1.45585000E-01    1.00000000E+00   1.00000000E+00 
SP   1    1.000000
   4.38000000E-02    1.00000000E+00   1.00000000E+00 
SP   1    1.000000
   1.31927711E-02    1.00000000E+00   1.00000000E+00 
D    1    1.000000
   6.26000000E-01    1.00000000E+00 

8    0
S    3    1.000000
   3.38650000E+01    2.54938000E-02 
   5.09479000E+00    1.90373000E-01 
   1.15879000E+00    8.52161000E-01 
S    1    1.000000
   3.25840000E-01    1.00000000E+00 
S    1    1.000000
   1.02741000E-01    1.00000000E+00 
S    1    1.000000
   3.60000000E-02    1.00000000E+00 
P    1    1.000000
   7.50000000E-01    1.00000000E+00 

9    0
S    1    1.000000
   4.56324000E+03    1.96665000E-03 
S    1    1.000000
   6.82024000E+02    1.52306000E-02 
S    1    1.000000
   1.54973000E+02    7.61269000E-02 
S    1    1.000000
   4.44553000E+01    2.60801000E-01 
S    1    1.000000
   1.30290000E+01    6.16462000E-01 
S    1    1.000000
   1.82773000E+00    2.21006000E-01 
SP   3    1.000000
   2.09642000E+01    1.14660000E-01   4.02487000E-02 
   4.80331000E+00    9.19999000E-01   2.37594000E-01 
   1.45933000E+00   -3.03068000E-03   8.15854000E-01 
SP   1    1.000000
   4.83456000E-01    1.00000000E+00   1.00000000E+00 
SP   1    1.000000
   1.45585000E-01    1.00000000E+00   1.00000000E+00 
SP   1    1.000000
   4.38000000E-02    1.00000000E+00   1.00000000E+00 
SP   1    1.000000
   1.31927711E-02    1.00000000E+00   1.00000000E+00 
D    1    1.000000
   6.26000000E-01    1.00000000E+00 

10    0
S    3    1.000000
   3.38650000E+01    2.54938000E-02 
   5.09479000E+00    1.90373000E-01 
   1.15879000E+00    8.52161000E-01 
S    1    1.000000
   3.25840000E-01    1.00000000E+00 
S    1    1.000000
   1.02741000E-01    1.00000000E+00 
S    1    1.000000
   3.60000000E-02    1.00000000E+00 
P    1    1.000000
   7.50000000E-01    1.00000000E+00 

11    0
S    1    1.000000
   4.56324000E+03    1.96665000E-03 
S    1    1.000000
   6.82024000E+02    1.52306000E-02 
S    1    1.000000
   1.54973000E+02    7.61269000E-02 
S    1    1.000000
   4.44553000E+01    2.60801000E-01 
S    1    1.000000
   1.30290000E+01    6.16462000E-01 
S    1    1.000000
   1.82773000E+00    2.21006000E-01 
SP   3    1.000000
   2.09642000E+01    1.14660000E-01   4.02487000E-02 
   4.80331000E+00    9.19999000E-01   2.37594000E-01 
   1.45933000E+00   -3.03068000E-03   8.15854000E-01 
SP   1    1.000000
   4.83456000E-01    1.00000000E+00   1.00000000E+00 
SP   1    1.000000
   1.45585000E-01    1.00000000E+00   1.00000000E+00 
SP   1    1.000000
   4.38000000E-02    1.00000000E+00   1.00000000E+00 
SP   1    1.000000
   1.31927711E-02    1.00000000E+00   1.00000000E+00 
D    1    1.000000
   6.26000000E-01    1.00000000E+00 

12    0
S    3    1.000000
   3.38650000E+01    2.54938000E-02 
   5.09479000E+00    1.90373000E-01 
   1.15879000E+00    8.52161000E-01 
S    1    1.000000
   3.25840000E-01    1.00000000E+00 
S    1    1.000000
   1.02741000E-01    1.00000000E+00 
S    1    1.000000
   3.60000000E-02    1.00000000E+00 
P    1    1.000000
   7.50000000E-01    1.00000000E+00 

[MO]
Sym=X
Ene= 1.996208
Spin=Alpha
Occup=1
     1   -3.653334514229e-02
     2   -4.954540703082e-02
     3    7.079991953069e-03
     4    7.438786865953e-04
     5    8.504663926930e-03
     6    3.130018160073e-11
     7    1.670770608349e-17
     8    9.107058278493e-05
     9    6.878368883604e-04
    10    3.651921948264e-03
    11    1.194945238292e-02
    12    3.011441087575e-02
    13    1.017456273257e-02
    14    7.657914090351e-02
    15    3.740677412989e-03
    16   -2.571862956922e-10
    17    3.215906557954e-15
    18   -2.150770415856e-01
    19    9.806471606565e-03
    20   -6.557116278736e-10
    21    5.884911515228e-15
    22   -9.621140579352e-02
    23   -8.414529248935e-03
    24   -2.419110743345e-09
    25    5.376126920295e-15
    26   -2.211859313112e-03
    27   -6.848368149392e-03
    28    4.580833325628e-10
    29    2.555300689551e-14
    30    6.357252388459e-04
    31    1.344636426885e-03
    32   -1.534081273170e-09
    33    1.521265783127e-13
    34    9.834423687153e-03
    35   -2.982899896924e-16
    36   -2.477625277966e-15
    37    3.489640254355e-03
    38    2.672268501149e-10
    39    9.108200183096e-05
    40    6.879233570827e-04
    41    3.652378002177e-03
    42    1.195094834904e-02
    43    3.011811055397e-02
    44    1.017597558893e-02
    45    7.658845021611e-02
    46    1.869006453754e-03
    47    3.231446895118e-03
    48    3.707652451813e-15
    49   -2.151018138501e-01
    50    4.901543526132e-03
    51    8.481062492864e-03
    52    4.885366524489e-15
    53   -9.622957960416e-02
    54   -4.210368856344e-03
    55   -7.293335763949e-03
    56   -1.099875168410e-15
    57   -2.171832643672e-03
    58   -3.433490238469e-03
    59   -5.947250431859e-03
    60   -2.447102235503e-14
    61    6.395935225380e-04
    62    6.724112607100e-04
    63    1.163953101738e-03
    64   -1.890265916368e-13
    65    9.835262459650e-03
    66   -1.133685286000e-15
    67    3.070473745920e-19
    68   -1.744514047094e-03
    69    3.020839447535e-03
    70   -3.654418618857e-02
    71   -4.956153408964e-02
    72    7.079430631386e-03
    73    7.518896577222e-04
    74    4.253309548531e-03
    75    7.366800677325e-03
    76   -5.143316705074e-16
    77    9.108215052790e-05
    78    6.879245085837e-04
    79    3.652383741200e-03
    80    1.195096805661e-02
    81    3.011815698889e-02
    82    1.017599262517e-02
    83    7.658851195859e-02
    84   -1.869006868077e-03
    85    3.231447086528e-03
    86    8.459410152572e-15
    87   -2.151018072206e-01
    88   -4.901544495876e-03
    89    8.481062834071e-03
    90    7.693631198347e-16
    91   -9.622958920120e-02
    92    4.210365129952e-03
    93   -7.293334146072e-03
    94    1.448173838334e-14
    95   -2.171830148250e-03
    96    3.433492101217e-03
    97   -5.947253881961e-03
    98    1.712532316998e-14
    99    6.395938499831e-04
   100   -6.724109804320e-04
   101    1.163949516166e-03
   102    1.432504663178e-13
   103    9.835262641571e-03
   104   -2.008676742222e-16
   105   -2.522182137683e-16
   106   -1.744514572926e-03
   107   -3.020839818142e-03
   108   -3.654418474087e-02
   109   -4.956153117187e-02
   110    7.079429490411e-03
   111    7.518949286680e-04
   112   -4.253309401634e-03
   113    7.366800482285e-03
   114    1.482247847939e-15
   115    9.107058292111e-05
   116    6.878368894166e-04
   117    3.651921953524e-03
   118    1.194945240100e-02
   119    3.011441091829e-02
   120    1.017456274799e-02
   121    7.657914095954e-02
   122   -3.740677413636e-03
   123    2.672181937512e-10
   124    3.759266274653e-15
   125   -2.150770415773e-01
   126   -9.806471607222e-03
   127    6.781569308379e-10
   128    7.147853492458e-15
   129   -9.621140579103e-02
   130    8.414529247359e-03
   131    2.428923318384e-09
   132    6.734338847489e-15
   133   -2.211859567601e-03
   134    6.848368123640e-03
   135   -7.061320777117e-10
   136   -3.933010817185e-14
   137    6.357252308283e-04
   138   -1.344636429256e-03
   139    1.541656428003e-09
   140   -7.686728828626e-14
   141    9.834423686729e-03
   142    1.448568234528e-15
   143    1.593652496831e-15
   144    3.489640254681e-03
   145    2.722988017909e-10
   146   -3.653334514037e-02
   147   -4.954540702903e-02
   148    7.079991950245e-03
   149    7.438786553322e-04
   150   -8.504663926387e-03
   151   -2.882551109757e-11
   152   -2.236622736971e-15
   153    9.108200075212e-05
   154    6.879233487291e-04
   155    3.652377960573e-03
   156    1.195094820606e-02
   157    3.011811021744e-02
   158    1.017597546684e-02
   159    7.658844977306e-02
   160   -1.869006456897e-03
   161   -3.231446888668e-03
   162    3.814038181704e-15
   163   -2.151018139139e-01
   164   -4.901543536013e-03
   165   -8.481062483373e-03
   166    1.427304639396e-14
   167   -9.622957962800e-02
   168    4.210368853269e-03
   169    7.293335767315e-03
   170   -1.821463722872e-15
   171   -2.171833161712e-03
   172    3.433490235885e-03
   173    5.947250429877e-03
   174    6.228419848666e-14
   175    6.395935037507e-04
   176   -6.724112706694e-04
   177   -1.163953109235e-03
   178    3.255142944554e-14
   179    9.835262463070e-03
   180   -2.479256575114e-15
   181   -2.619517274169e-17
   182   -1.744514048514e-03
   183    3.020839444211e-03
   184   -3.654418620318e-02
   185   -4.956153410402e-02
   186    7.079430625568e-03
   187    7.518896573052e-04
   188   -4.253309551985e-03
   189   -7.366800680298e-03
   190    8.010774452175e-16
   191    9.108214931454e-05
   192    6.879244991850e-04
   193    3.652383694379e-03
   194    1.195096789575e-02
   195    3.011815661017e-02
   196    1.017599248768e-02
   197    7.658851146004e-02
   198    1.869006869380e-03
   199   -3.231447080713e-03
   200    8.323693031762e-15
   201   -2.151018072917e-01
   202    4.901544502072e-03
   203   -8.481062826678e-03
   204   -3.736718209952e-17
   205   -9.622958923514e-02
   206   -4.210365124019e-03
   207    7.293334146713e-03
   208    1.285596267713e-14
   209   -2.171830412739e-03
   210   -3.433492330306e-03
   211    5.947253779856e-03
   212   -5.678448700985e-14
   213    6.395938390810e-04
   214    6.724109859239e-04
   215   -1.163949521685e-03
   216   -7.706367661156e-14
   217    9.835262645511e-03
   218   -4.432506245625e-15
   219   -1.492691575494e-15
   220   -1.744514573720e-03
   221   -3.020839815176e-03
   222   -3.654418475695e-02
   223   -4.956153118871e-02
   224    7.079429487615e-03
   225    7.518949638164e-04
   226    4.253309404941e-03
   227   -7.366800486088e-03
   228    1.073113911255e-15
Sym=X
Ene= 1.995659
Spin=Alpha
Occup=1
     1   -2.357156625909e-09
     2   -1.635836729329e-09
     3   -9.543531957687e-10
     4   -5.344944139867e-09
     5    7.738223123430e-11
     6    1.131261154330e-03
     7   -7.207144236071e-14
     8    1.429116965327e-12
     9    1.108151834145e-11
    10    5.641974035608e-11
    11    1.930545050133e-10
    12    4.032782681394e-10
    13   -4.153157774815e-10
    14    1.298781181840e-09
    15   -3.016000944008e-09
    16    3.128671291433e-02
    17   -1.457272908526e-13
    18   -5.324991112128e-10
    19   -4.794081681737e-09
    20    4.832667606500e-02
    21   -3.819994475406e-13
    22   -8.591103928463e-09
    23   -3.920005922248e-09
    24    1.070581180294e-02
    25    4.264016650768e-13
    26   -1.465529813785e-07
    27    3.210719675271e-09
    28   -6.840006080015e-02
    29   -3.914245151489e-11
    30   -4.865158273958e-09
    31    3.047608722230e-09
    32    4.564596643628e-03
    33    6.925731128255e-11
    34    1.759977324131e-09
    35   -5.904045748969e-14
    36    1.857155675715e-15
    37    8.916414078712e-10
    38   -5.962884316333e-03
    39   -9.828537692070e-05
    40   -7.438575495801e-04
    41   -3.934666755309e-03
    42   -1.291741867528e-02
    43   -3.216057649279e-02
    44   -9.141009761383e-03
    45   -8.230770529684e-02
    46    7.072318315918e-03
    47    4.353799183137e-02
    48    1.457931974540e-13
    49    2.212840695391e-01
    50    7.323211133492e-03
    51    6.101342521503e-02
    52    3.877648211554e-13
    53    1.163197053640e-01
    54    1.394026865392e-02
    55    3.485217686612e-02
    56   -4.113019086479e-13
    57    9.190448614958e-02
    58    5.419936542539e-02
    59    2.547570155947e-02
    60    3.907418601082e-11
    61    4.298773079210e-03
    62   -4.001557636928e-03
    63   -2.366280134492e-03
    64   -6.917278631318e-11
    65   -9.162560858129e-03
    66    3.035835074167e-14
    67    5.384523109395e-14
    68    3.492799626995e-03
    69   -8.662921109480e-05
    70    7.026943592809e-02
    71    1.021142459590e-01
    72   -5.251170340843e-03
    73   -3.307537035061e-02
    74   -7.556239869784e-03
    75   -1.195645796862e-02
    76    7.380517620810e-14
    77   -9.828546486680e-05
    78   -7.438582296179e-04
    79   -3.934670157541e-03
    80   -1.291743032164e-02
    81   -3.216060402392e-02
    82   -9.141019704203e-03
    83   -8.230774416799e-02
    84   -7.072321283055e-03
    85    4.353799647576e-02
    86   -1.508081287018e-13
    87    2.212840769884e-01
    88   -7.323209630819e-03
    89    6.101343026922e-02
    90   -3.862744720805e-13
    91    1.163197218108e-01
    92   -1.394026136425e-02
    93    3.485218001610e-02
    94    3.982398123057e-13
    95    9.190465034155e-02
    96   -5.419926204748e-02
    97    2.547581669621e-02
    98   -3.902884955472e-11
    99    4.298778418550e-03
   100    4.001556132732e-03
   101   -2.366277066548e-03
   102    6.910300585197e-11
   103   -9.162560091414e-03
   104    3.033629228777e-14
   105   -5.016024543264e-14
   106    3.492803100800e-03
   107    8.662858389238e-05
   108    7.026944305712e-02
   109    1.021142686656e-01
   110   -5.251185059152e-03
   111   -3.307541541363e-02
   112    7.556241639300e-03
   113   -1.195646219299e-02
   114   -7.258032305301e-14
   115   -8.184074649245e-13
   116   -6.344986672169e-12
   117   -3.286175185679e-11
   118   -1.120447450042e-10
   119   -2.134313639515e-10
   120    4.819608546077e-10
   121   -1.052977212857e-09
   122   -3.028521322843e-09
   123    3.128671291453e-02
   124    1.399616504080e-13
   125    6.133677693668e-10
   126   -4.815741654294e-09
   127    4.832667606607e-02
   128    3.692324288955e-13
   129    8.575409905593e-09
   130   -3.956435763461e-09
   131    1.070581178786e-02
   132   -4.128501988136e-13
   133    1.468635294428e-07
   134    3.131103558418e-09
   135   -6.840006005174e-02
   136    3.905731258617e-11
   137    4.879058108935e-09
   138    3.173940569390e-09
   139    4.564596584463e-03
   140   -6.914650960390e-11
   141   -1.763154010720e-09
   142   -5.970994895824e-14
   143   -4.109605882026e-16
   144   -8.865936031332e-10
   145    5.962884316245e-03
   146    2.384227293066e-09
   147    1.658238249347e-09
   148    9.819060249127e-10
   149    5.275222215731e-09
   150    7.794555145063e-11
   151    1.131261154584e-03
   152    7.143415313496e-14
   153    9.828537726085e-05
   154    7.438575522196e-04
   155    3.934666768434e-03
   156    1.291741872044e-02
   157    3.216057659838e-02
   158    9.141009797449e-03
   159    8.230770543369e-02
   160    7.072318314715e-03
   161    4.353799183474e-02
   162   -1.507972947324e-13
   163   -2.212840694914e-01
   164    7.323211132111e-03
   165    6.101342522771e-02
   166   -3.810979856424e-13
   167   -1.163197053122e-01
   168    1.394026865304e-02
   169    3.485217686575e-02
   170    4.106225457910e-13
   171   -9.190448671924e-02
   172    5.419936476948e-02
   173    2.547570176093e-02
   174   -3.913193914061e-11
   175   -4.298773128456e-03
   176   -4.001557784105e-03
   177   -2.366280063918e-03
   178    6.922561740409e-11
   179    9.162560857978e-03
   180    2.810750832096e-14
   181    4.687764765822e-14
   182   -3.492799626622e-03
   183    8.662921021079e-05
   184   -7.026943592322e-02
   185   -1.021142459456e-01
   186    5.251170298315e-03
   187    3.307537027657e-02
   188   -7.556239867885e-03
   189   -1.195645796578e-02
   190   -6.981322272539e-14
   191    9.828546516926e-05
   192    7.438582319570e-04
   193    3.934670169175e-03
   194    1.291743036167e-02
   195    3.216060411749e-02
   196    9.141019735780e-03
   197    8.230774429007e-02
   198   -7.072321283945e-03
   199    4.353799648225e-02
   200    1.378137099753e-13
   201   -2.212840769501e-01
   202   -7.323209634389e-03
   203    6.101343028622e-02
   204    3.709522527642e-13
   205   -1.163197217735e-01
   206   -1.394026135120e-02
   207    3.485218004649e-02
   208   -4.332330222902e-13
   209   -9.190465006985e-02
   210   -5.419926294137e-02
   211    2.547581644421e-02
   212    3.917261773261e-11
   213   -4.298778380599e-03
   214    4.001556245834e-03
   215   -2.366277134159e-03
   216   -6.929913827131e-11
   217    9.162560091309e-03
   218    2.833711445741e-14
   219   -5.116898123382e-14
   220   -3.492803100083e-03
   221   -8.662858223845e-05
   222   -7.026944305509e-02
   223   -1.021142686571e-01
   224    5.251185075262e-03
   225    3.307541554198e-02
   226    7.556241637505e-03
   227   -1.195646219067e-02
   228    7.078534912717e-14
Sym=X
Ene= 1.995658
Spin=Alpha
Occup=1
     1    8.113534311456e-02
     2    1.179040430945e-01
     3   -6.064856178027e-03
     4   -3.819217914313e-02
     5   -1.631841717507e-02
     6    5.767425668564e-10
     7    6.149243419725e-14
     8   -1.134868143788e-04
     9   -8.589073563430e-04
    10   -4.543227369474e-03
    11   -1.491531576854e-02
    12   -3.713476546236e-02
    13   -1.055439518156e-02
    14   -9.503794442356e-02
    15    4.761768233087e-02
    16    3.524533514505e-09
    17    1.457682099496e-13
    18    2.555091440701e-01
    19    6.523603768818e-02
    20    3.426409290518e-09
    21    3.603997108879e-13
    22    1.343049532632e-01
    23    4.289812871669e-02
    24   -8.728424717233e-11
    25   -2.942740837123e-13
    26    1.061219748636e-01
    27    5.676704668487e-02
    28   -8.121524887797e-08
    29    3.238628067932e-11
    30    4.963802391035e-03
    31   -4.676327799543e-03
    32    2.694926285372e-10
    33   -5.686584336945e-11
    34   -1.057983539112e-02
    35    4.399214136202e-14
    36    7.459509470492e-16
    37   -2.104484492164e-03
    38    1.459608527790e-09
    39   -5.674864337108e-05
    40   -4.294932585063e-04
    41   -2.271823389350e-03
    42   -7.458342376034e-03
    43   -1.856906972783e-02
    44   -5.277786456595e-03
    45   -4.752347509944e-02
    46    3.537253538687e-02
    47    7.076060230182e-03
    48   -8.636811887499e-14
    49    1.277668952090e-01
    50    5.255869340822e-02
    51    7.328577606653e-03
    52   -2.555538499464e-13
    53    6.716618955527e-02
    54    1.875596396061e-02
    55    1.394252358210e-02
    56    3.777674514057e-13
    57    5.306098169882e-02
    58   -3.710777232999e-02
    59    5.419939510395e-02
    60   -3.239154944370e-11
    61    2.481864637118e-03
    62    2.254203443857e-03
    63   -4.001670814066e-03
    64    5.687365670687e-11
    65   -5.290205473037e-03
    66   -2.474983292150e-14
    67   -4.616865250199e-14
    68   -3.947036011760e-03
    69   -3.491648144718e-03
    70    4.057474891627e-02
    71    5.896271246316e-02
    72   -3.030393802539e-03
    73   -1.909577719477e-02
    74   -3.231615761703e-03
    75   -7.556774187458e-03
    76   -5.635150760798e-14
    77    5.674859098852e-05
    78    4.294928533836e-04
    79    2.271821361215e-03
    80    7.458335433722e-03
    81    1.856905342033e-02
    82    5.277781641010e-03
    83    4.752345082952e-02
    84    3.537252546336e-02
    85   -7.076057787202e-03
    86    1.572214595193e-13
    87   -1.277668889006e-01
    88    5.255867712725e-02
    89   -7.328577381778e-03
    90    3.686010846370e-13
    91   -6.716617433697e-02
    92    1.875595530440e-02
    93   -1.394252448943e-02
    94   -2.879984802022e-13
    95   -5.306072723787e-02
    96   -3.710785479843e-02
    97   -5.419941417344e-02
    98    3.239671727607e-11
    99   -2.481856185233e-03
   100    2.254204014356e-03
   101    4.001669099135e-03
   102   -5.684955818887e-11
   103    5.290203795589e-03
   104   -2.387617003632e-14
   105    3.694934321682e-14
   106    3.947034786911e-03
   107   -3.491645516582e-03
   108   -4.057474222115e-02
   109   -5.896269733666e-02
   110    3.030385854771e-03
   111    1.909575636030e-02
   112   -3.231614278382e-03
   113    7.556771725531e-03
   114    6.009175551601e-14
   115    1.134868143567e-04
   116    8.589073561699e-04
   117    4.543227368621e-03
   118    1.491531576560e-02
   119    3.713476545550e-02
   120    1.055439517933e-02
   121    9.503794441467e-02
   122    4.761768233036e-02
   123    3.526922808753e-09
   124   -9.124855203365e-14
   125   -2.555091440732e-01
   126    6.523603768696e-02
   127    3.439002770741e-09
   128   -2.611967893060e-13
   129   -1.343049532740e-01
   130    4.289812871695e-02
   131   -1.182276420416e-10
   132    3.679531584931e-13
   133   -1.061219746477e-01
   134    5.676704664210e-02
   135   -8.156193145567e-08
   136   -3.238966207957e-11
   137   -4.963802380159e-03
   138   -4.676327741707e-03
   139    2.138614087253e-10
   140    5.682930338750e-11
   141    1.057983539122e-02
   142    5.310564844210e-14
   143    5.520482727782e-16
   144    2.104484492450e-03
   145   -1.459374740923e-09
   146   -8.113534311413e-02
   147   -1.179040430932e-01
   148    6.064856177465e-03
   149    3.819217908309e-02
   150   -1.631841717540e-02
   151    5.760053368307e-10
   152   -5.686033041649e-14
   153    5.674864315217e-05
   154    4.294932568054e-04
   155    2.271823380897e-03
   156    7.458342346954e-03
   157    1.856906965959e-02
   158    5.277786431882e-03
   159    4.752347501223e-02
   160    3.537253539249e-02
   161    7.076060240688e-03
   162    1.448359168857e-13
   163   -1.277668952408e-01
   164    5.255869341661e-02
   165    7.328577628748e-03
   166    3.566148216566e-13
   167   -6.716618957270e-02
   168    1.875596399945e-02
   169    1.394252359929e-02
   170   -2.995796978085e-13
   171   -5.306098145628e-02
   172   -3.710777185165e-02
   173    5.419939501904e-02
   174    3.239082767674e-11
   175   -2.481864611990e-03
   176    2.254203396262e-03
   177   -4.001670758812e-03
   178   -5.682400993693e-11
   179    5.290205474804e-03
   180   -2.694001673137e-14
   181   -3.752276484994e-14
   182    3.947036013422e-03
   183    3.491648140795e-03
   184   -4.057474893181e-02
   185   -5.896271247142e-02
   186    3.030393822984e-03
   187    1.909577731617e-02
   188   -3.231615761301e-03
   189   -7.556774186935e-03
   190    6.252328946273e-14
   191   -5.674859087533e-05
   192   -4.294928525113e-04
   193   -2.271821356859e-03
   194   -7.458335418770e-03
   195   -1.856905338513e-02
   196   -5.277781627660e-03
   197   -4.752345078528e-02
   198    3.537252546918e-02
   199   -7.076057797009e-03
   200   -1.008035714140e-13
   201    1.277668889179e-01
   202    5.255867713673e-02
   203   -7.328577403040e-03
   204   -2.770594031359e-13
   205    6.716617435969e-02
   206    1.875595534551e-02
   207   -1.394252450621e-02
   208    3.470598609161e-13
   209    5.306072672280e-02
   210   -3.710785444498e-02
   211   -5.419941408008e-02
   212   -3.236773478020e-11
   213    2.481856144908e-03
   214    2.254204087201e-03
   215    4.001669050436e-03
   216    5.683730304302e-11
   217   -5.290203797101e-03
   218   -2.491609083999e-14
   219    4.408275110955e-14
   220   -3.947034788562e-03
   221    3.491645513257e-03
   222    4.057474223274e-02
   223    5.896269733757e-02
   224   -3.030385867415e-03
   225   -1.909575636878e-02
   226   -3.231614277893e-03
   227    7.556771724581e-03
   228   -5.578374520366e-14
Sym=X
Ene= 1.994710
Spin=Alpha
Occup=1
     1    6.720393178024e-09
     2    8.627477745328e-09
     3    4.371121683141e-11
     4    4.893772662094e-08
     5   -1.368270020717e-09
     6   -6.453346684314e-04
     7    1.781041446396e-14
     8   -1.438853776484e-11
     9   -1.089398070858e-10
    10   -5.748235373256e-10
    11   -1.881786210254e-09
    12   -4.631095496534e-09
    13   -1.964020080382e-09
    14   -1.187721091985e-08
    15    8.885390321298e-10
    16   -3.410191821441e-02
    17    2.518036938476e-13
    18    3.038050180069e-08
    19    1.440348238175e-09
    20   -5.207904840808e-02
    21    4.443542940376e-13
    22    3.574127092270e-08
    23   -4.696549450522e-09
    24    8.490691600579e-04
    25    3.477901895900e-13
    26   -1.753599851810e-08
    27   -1.638429823880e-08
    28   -2.557235965707e-03
    29   -2.138125790610e-13
    30    8.519314792099e-11
    31    4.291721951731e-09
    32   -4.501682776482e-03
    33    2.134489141191e-12
    34   -1.225167394940e-09
    35   -4.331356699291e-14
    36    4.102539918137e-15
    37   -6.702291290794e-10
    38    3.947998785760e-03
    39    8.336484912046e-05
    40    6.311959208712e-04
    41    3.336681918809e-03
    42    1.095935471080e-02
    43    2.718429162009e-02
    44    7.236674148485e-03
    45    7.015541508894e-02
    46   -4.694353606679e-02
    47   -4.720684317566e-02
    48    2.781136390447e-13
    49   -1.907168646741e-01
    50   -6.832754508503e-02
    51   -6.626770357044e-02
    52    4.763446320686e-13
    53   -1.332305710713e-01
    54   -2.981573047088e-02
    55   -5.249125657805e-02
    56    3.312430738488e-13
    57    2.973088109338e-01
    58   -7.120023226294e-02
    59   -1.207651985524e-01
    60    1.947490427655e-13
    61    2.868082839673e-02