[Molden Format]
[Atoms] (Angs)
  H      1    1      2.47503475      0.00000000     -0.00000000
  C      2    6      1.39359294      0.00000000     -0.00000000
  C      3    6      0.69679647      1.20688689      0.00000000
  H      4    1      1.23751738      2.14344297      0.00000000
  C      5    6     -0.69679647      1.20688689      0.00000000
  H      6    1     -1.23751738      2.14344297      0.00000000
  C      7    6     -1.39359294     -0.00000000      0.00000000
  H      8    1     -2.47503475     -0.00000000      0.00000000
  C      9    6     -0.69679647     -1.20688689     -0.00000000
  H     10    1     -1.23751738     -2.14344297     -0.00000000
  C     11    6      0.69679647     -1.20688689     -0.00000000
  H     12    1      1.23751738     -2.14344297     -0.00000000
[GTO]
1    0
S    3    1.000000
   3.38650000E+01    2.54938000E-02 
   5.09479000E+00    1.90373000E-01 
   1.15879000E+00    8.52161000E-01 
S    1    1.000000
   3.25840000E-01    1.00000000E+00 
S    1    1.000000
   1.02741000E-01    1.00000000E+00 
S    1    1.000000
   3.60000000E-02    1.00000000E+00 
P    1    1.000000
   7.50000000E-01    1.00000000E+00 

2    0
S    1    1.000000
   4.56324000E+03    1.96665000E-03 
S    1    1.000000
   6.82024000E+02    1.52306000E-02 
S    1    1.000000
   1.54973000E+02    7.61269000E-02 
S    1    1.000000
   4.44553000E+01    2.60801000E-01 
S    1    1.000000
   1.30290000E+01    6.16462000E-01 
S    1    1.000000
   1.82773000E+00    2.21006000E-01 
SP   3    1.000000
   2.09642000E+01    1.14660000E-01   4.02487000E-02 
   4.80331000E+00    9.19999000E-01   2.37594000E-01 
   1.45933000E+00   -3.03068000E-03   8.15854000E-01 
SP   1    1.000000
   4.83456000E-01    1.00000000E+00   1.00000000E+00 
SP   1    1.000000
   1.45585000E-01    1.00000000E+00   1.00000000E+00 
SP   1    1.000000
   4.38000000E-02    1.00000000E+00   1.00000000E+00 
SP   1    1.000000
   1.31927711E-02    1.00000000E+00   1.00000000E+00 
D    1    1.000000
   6.26000000E-01    1.00000000E+00 

3    0
S    1    1.000000
   4.56324000E+03    1.96665000E-03 
S    1    1.000000
   6.82024000E+02    1.52306000E-02 
S    1    1.000000
   1.54973000E+02    7.61269000E-02 
S    1    1.000000
   4.44553000E+01    2.60801000E-01 
S    1    1.000000
   1.30290000E+01    6.16462000E-01 
S    1    1.000000
   1.82773000E+00    2.21006000E-01 
SP   3    1.000000
   2.09642000E+01    1.14660000E-01   4.02487000E-02 
   4.80331000E+00    9.19999000E-01   2.37594000E-01 
   1.45933000E+00   -3.03068000E-03   8.15854000E-01 
SP   1    1.000000
   4.83456000E-01    1.00000000E+00   1.00000000E+00 
SP   1    1.000000
   1.45585000E-01    1.00000000E+00   1.00000000E+00 
SP   1    1.000000
   4.38000000E-02    1.00000000E+00   1.00000000E+00 
SP   1    1.000000
   1.31927711E-02    1.00000000E+00   1.00000000E+00 
D    1    1.000000
   6.26000000E-01    1.00000000E+00 

4    0
S    3    1.000000
   3.38650000E+01    2.54938000E-02 
   5.09479000E+00    1.90373000E-01 
   1.15879000E+00    8.52161000E-01 
S    1    1.000000
   3.25840000E-01    1.00000000E+00 
S    1    1.000000
   1.02741000E-01    1.00000000E+00 
S    1    1.000000
   3.60000000E-02    1.00000000E+00 
P    1    1.000000
   7.50000000E-01    1.00000000E+00 

5    0
S    1    1.000000
   4.56324000E+03    1.96665000E-03 
S    1    1.000000
   6.82024000E+02    1.52306000E-02 
S    1    1.000000
   1.54973000E+02    7.61269000E-02 
S    1    1.000000
   4.44553000E+01    2.60801000E-01 
S    1    1.000000
   1.30290000E+01    6.16462000E-01 
S    1    1.000000
   1.82773000E+00    2.21006000E-01 
SP   3    1.000000
   2.09642000E+01    1.14660000E-01   4.02487000E-02 
   4.80331000E+00    9.19999000E-01   2.37594000E-01 
   1.45933000E+00   -3.03068000E-03   8.15854000E-01 
SP   1    1.000000
   4.83456000E-01    1.00000000E+00   1.00000000E+00 
SP   1    1.000000
   1.45585000E-01    1.00000000E+00   1.00000000E+00 
SP   1    1.000000
   4.38000000E-02    1.00000000E+00   1.00000000E+00 
SP   1    1.000000
   1.31927711E-02    1.00000000E+00   1.00000000E+00 
D    1    1.000000
   6.26000000E-01    1.00000000E+00 

6    0
S    3    1.000000
   3.38650000E+01    2.54938000E-02 
   5.09479000E+00    1.90373000E-01 
   1.15879000E+00    8.52161000E-01 
S    1    1.000000
   3.25840000E-01    1.00000000E+00 
S    1    1.000000
   1.02741000E-01    1.00000000E+00 
S    1    1.000000
   3.60000000E-02    1.00000000E+00 
P    1    1.000000
   7.50000000E-01    1.00000000E+00 

7    0
S    1    1.000000
   4.56324000E+03    1.96665000E-03 
S    1    1.000000
   6.82024000E+02    1.52306000E-02 
S    1    1.000000
   1.54973000E+02    7.61269000E-02 
S    1    1.000000
   4.44553000E+01    2.60801000E-01 
S    1    1.000000
   1.30290000E+01    6.16462000E-01 
S    1    1.000000
   1.82773000E+00    2.21006000E-01 
SP   3    1.000000
   2.09642000E+01    1.14660000E-01   4.02487000E-02 
   4.80331000E+00    9.19999000E-01   2.37594000E-01 
   1.45933000E+00   -3.03068000E-03   8.15854000E-01 
SP   1    1.000000
   4.83456000E-01    1.00000000E+00   1.00000000E+00 
SP   1    1.000000
   1.45585000E-01    1.00000000E+00   1.00000000E+00 
SP   1    1.000000
   4.38000000E-02    1.00000000E+00   1.00000000E+00 
SP   1    1.000000
   1.31927711E-02    1.00000000E+00   1.00000000E+00 
D    1    1.000000
   6.26000000E-01    1.00000000E+00 

8    0
S    3    1.000000
   3.38650000E+01    2.54938000E-02 
   5.09479000E+00    1.90373000E-01 
   1.15879000E+00    8.52161000E-01 
S    1    1.000000
   3.25840000E-01    1.00000000E+00 
S    1    1.000000
   1.02741000E-01    1.00000000E+00 
S    1    1.000000
   3.60000000E-02    1.00000000E+00 
P    1    1.000000
   7.50000000E-01    1.00000000E+00 

9    0
S    1    1.000000
   4.56324000E+03    1.96665000E-03 
S    1    1.000000
   6.82024000E+02    1.52306000E-02 
S    1    1.000000
   1.54973000E+02    7.61269000E-02 
S    1    1.000000
   4.44553000E+01    2.60801000E-01 
S    1    1.000000
   1.30290000E+01    6.16462000E-01 
S    1    1.000000
   1.82773000E+00    2.21006000E-01 
SP   3    1.000000
   2.09642000E+01    1.14660000E-01   4.02487000E-02 
   4.80331000E+00    9.19999000E-01   2.37594000E-01 
   1.45933000E+00   -3.03068000E-03   8.15854000E-01 
SP   1    1.000000
   4.83456000E-01    1.00000000E+00   1.00000000E+00 
SP   1    1.000000
   1.45585000E-01    1.00000000E+00   1.00000000E+00 
SP   1    1.000000
   4.38000000E-02    1.00000000E+00   1.00000000E+00 
SP   1    1.000000
   1.31927711E-02    1.00000000E+00   1.00000000E+00 
D    1    1.000000
   6.26000000E-01    1.00000000E+00 

10    0
S    3    1.000000
   3.38650000E+01    2.54938000E-02 
   5.09479000E+00    1.90373000E-01 
   1.15879000E+00    8.52161000E-01 
S    1    1.000000
   3.25840000E-01    1.00000000E+00 
S    1    1.000000
   1.02741000E-01    1.00000000E+00 
S    1    1.000000
   3.60000000E-02    1.00000000E+00 
P    1    1.000000
   7.50000000E-01    1.00000000E+00 

11    0
S    1    1.000000
   4.56324000E+03    1.96665000E-03 
S    1    1.000000
   6.82024000E+02    1.52306000E-02 
S    1    1.000000
   1.54973000E+02    7.61269000E-02 
S    1    1.000000
   4.44553000E+01    2.60801000E-01 
S    1    1.000000
   1.30290000E+01    6.16462000E-01 
S    1    1.000000
   1.82773000E+00    2.21006000E-01 
SP   3    1.000000
   2.09642000E+01    1.14660000E-01   4.02487000E-02 
   4.80331000E+00    9.19999000E-01   2.37594000E-01 
   1.45933000E+00   -3.03068000E-03   8.15854000E-01 
SP   1    1.000000
   4.83456000E-01    1.00000000E+00   1.00000000E+00 
SP   1    1.000000
   1.45585000E-01    1.00000000E+00   1.00000000E+00 
SP   1    1.000000
   4.38000000E-02    1.00000000E+00   1.00000000E+00 
SP   1    1.000000
   1.31927711E-02    1.00000000E+00   1.00000000E+00 
D    1    1.000000
   6.26000000E-01    1.00000000E+00 

12    0
S    3    1.000000
   3.38650000E+01    2.54938000E-02 
   5.09479000E+00    1.90373000E-01 
   1.15879000E+00    8.52161000E-01 
S    1    1.000000
   3.25840000E-01    1.00000000E+00 
S    1    1.000000
   1.02741000E-01    1.00000000E+00 
S    1    1.000000
   3.60000000E-02    1.00000000E+00 
P    1    1.000000
   7.50000000E-01    1.00000000E+00 

[MO]
Sym=X
Ene= 1.997517
Spin=Alpha
Occup=1
     1    5.715042483987e-11
     2    6.474316453724e-10
     3    7.804422375474e-11
     4   -4.673149568473e-10
     5   -2.711195636262e-10
     6    5.511302697508e-04
     7   -1.517809828887e-14
     8   -1.543185416980e-12
     9   -1.149539023932e-11
    10   -6.265212491619e-11
    11   -1.993002107709e-10
    12   -5.316866998231e-10
    13   -4.378052967827e-10
    14   -1.427702637349e-09
    15   -1.469122219622e-09
    16    1.897475203755e-02
    17   -2.998871784501e-14
    18    5.763215439783e-09
    19   -2.471878578895e-09
    20    2.830425849920e-02
    21   -8.081196828818e-14
    22   -2.568760506397e-09
    23   -1.595137174523e-09
    24    1.351914528531e-03
    25    1.000865768161e-13
    26   -3.632481159208e-08
    27   -3.556438175578e-10
    28   -6.756258833350e-02
    29   -8.092564338510e-12
    30   -1.225114789125e-09
    31    8.411933718140e-10
    32    3.771713093044e-03
    33    1.416663074590e-11
    34    1.113975263820e-09
    35   -1.249492281211e-14
    36    2.353933139545e-16
    37    8.465662110555e-10
    38   -2.758120410168e-03
    39   -8.497065402992e-05
    40   -6.417723430592e-04
    41   -3.407139593756e-03
    42   -1.112511876320e-02
    43   -2.777762764920e-02
    44   -1.054892797810e-02
    45   -7.263702773846e-02
    46    6.729860545427e-03
    47    5.138633832747e-02
    48    2.703541108278e-14
    49    1.984881236020e-01
    50    8.001508084351e-03
    51    7.490728718934e-02
    52    8.241033786408e-14
    53    1.135291945302e-01
    54    1.611069277330e-02
    55    4.429929664398e-02
    56   -9.789009764450e-14
    57    9.291902095785e-02
    58    5.404922295465e-02
    59    2.427262262361e-02
    60    8.090291598549e-12
    61    4.282854057108e-03
    62   -4.529656173545e-03
    63   -2.110670642161e-03
    64   -1.415194596801e-11
    65   -8.438438486755e-03
    66    7.136158621709e-15
    67    1.433963745059e-14
    68    2.676392924282e-03
    69    9.104721717622e-04
    70    7.652979378782e-02
    71    1.137657933129e-01
    72    1.151031514030e-03
    73   -3.232142409974e-02
    74   -7.692046687398e-03
    75   -1.206115338460e-02
    76    1.749437162008e-14
    77   -8.497081086524e-05
    78   -6.417735568636e-04
    79   -3.407145653148e-03
    80   -1.112513955076e-02
    81   -2.777767675666e-02
    82   -1.054894595593e-02
    83   -7.263709443491e-02
    84   -6.729861790842e-03
    85    5.138634380058e-02
    86   -3.428103215234e-14
    87    1.984881261838e-01
    88   -8.001506575617e-03
    89    7.490729521745e-02
    90   -8.566850093204e-14
    91    1.135292074666e-01
    92   -1.611068632674e-02
    93    4.429930280864e-02
    94    8.301053260995e-14
    95    9.291906220532e-02
    96   -5.404919871685e-02
    97    2.427265435415e-02
    98   -8.069645586019e-12
    99    4.282855407570e-03
   100    4.529655632668e-03
   101   -2.110669796165e-03
   102    1.410690082249e-11
   103   -8.438438528392e-03
   104    6.760394440793e-15
   105   -9.777893755127e-15
   106    2.676395282553e-03
   107   -9.104735124113e-04
   108    7.652979998943e-02
   109    1.137658077914e-01
   110    1.151029479059e-03
   111   -3.232143808709e-02
   112    7.692047246611e-03
   113   -1.206115582909e-02
   114   -1.607792680296e-14
   115    2.706964099392e-12
   116    2.051341569136e-11
   117    1.075737119912e-10
   118    3.536891087605e-10
   119    8.953989229366e-10
   120    5.685171291624e-10
   121    1.904354012380e-09
   122   -1.483973298261e-09
   123    1.897475203782e-02
   124    2.250689958515e-14
   125   -5.687144664780e-09
   126   -2.494484531164e-09
   127    2.830425849977e-02
   128    6.656099719660e-14
   129    2.595849503489e-09
   130   -1.623042919265e-09
   131    1.351914525542e-03
   132   -9.306863584089e-14
   133    3.634688966576e-08
   134   -4.003698679146e-10
   135   -6.756258819323e-02
   136    8.044837085927e-12
   137    1.222712811781e-09
   138    8.707048116068e-10
   139    3.771713082247e-03
   140   -1.409959580365e-11
   141   -1.117091490932e-09
   142   -1.297011696675e-14
   143   -6.866978882723e-16
   144   -8.436073463764e-10
   145    2.758120410205e-03
   146   -2.907996491229e-11
   147   -6.141673486037e-10
   148   -7.019399398859e-11
   149    4.373381574811e-10
   150   -2.680910496438e-10
   151    5.511302698384e-04
   152    1.462598989048e-14
   153    8.497065467985e-05
   154    6.417723480966e-04
   155    3.407139618846e-03
   156    1.112511884944e-02
   157    2.777762785220e-02
   158    1.054892805027e-02
   159    7.263702800455e-02
   160    6.729860545977e-03
   161    5.138633832808e-02
   162   -3.209065888810e-14
   163   -1.984881235568e-01
   164    8.001508085564e-03
   165    7.490728719534e-02
   166   -7.716025843747e-14
   167   -1.135291945006e-01
   168    1.611069277492e-02
   169    4.429929664226e-02
   170    8.807487466226e-14
   171   -9.291902109767e-02
   172    5.404922282958e-02
   173    2.427262265399e-02
   174   -8.081014918611e-12
   175   -4.282854069064e-03
   176   -4.529656207989e-03
   177   -2.110670630964e-03
   178    1.412728316247e-11
   179    8.438438485557e-03
   180    6.016475361691e-15
   181    5.866935955452e-15
   182   -2.676392923162e-03
   183   -9.104721732956e-04
   184   -7.652979378020e-02
   185   -1.137657932994e-01
   186   -1.151031526582e-03
   187    3.232142408607e-02
   188   -7.692046685684e-03
   189   -1.206115338221e-02
   190   -1.276550482851e-14
   191    8.497081144039e-05
   192    6.417735613133e-04
   193    3.407145675315e-03
   194    1.112513962696e-02
   195    2.777767693599e-02
   196    1.054894601940e-02
   197    7.263709467038e-02
   198   -6.729861792860e-03
   199    5.138634380411e-02
   200    2.875442069488e-14
   201   -1.984881261458e-01
   202   -8.001506579821e-03
   203    7.490729522798e-02
   204    8.191809541378e-14
   205   -1.135292074430e-01
   206   -1.611068632771e-02
   207    4.429930281671e-02
   208   -9.886133818516e-14
   209   -9.291906208679e-02
   210   -5.404919890954e-02
   211    2.427265433416e-02
   212    8.108200282365e-12
   213   -4.282855393152e-03
   214    4.529655661185e-03
   215   -2.110669804143e-03
   216   -1.418122538250e-11
   217    8.438438527345e-03
   218    4.926388574721e-15
   219   -1.015311949817e-14
   220   -2.676395281056e-03
   221    9.104735147331e-04
   222   -7.652979998536e-02
   223   -1.137658077834e-01
   224   -1.151029476249e-03
   225    3.232143813180e-02
   226    7.692047245169e-03
   227   -1.206115582702e-02
   228    1.438612860233e-14
Sym=X
Ene= 1.997488
Spin=Alpha
Occup=1
     1   -1.584504215162e-03
     2   -7.057452448326e-03
     3   -7.857609247755e-03
     4    3.380052566921e-02
     5   -1.776784405775e-03
     6   -4.231110198292e-10
     7    2.143353152810e-15
     8   -3.522107121078e-05
     9   -2.670117639648e-04
    10   -1.404556390654e-03
    11   -4.650411525399e-03
    12   -1.181021384469e-02
    13   -3.518604701992e-03
    14   -2.639198481067e-02
    15   -1.393542893798e-02
    16   -7.954421753179e-09
    17    2.095511005025e-14
    18    6.741010393491e-02
    19   -2.217713756417e-02
    20   -1.228954166050e-08
    21    4.435809382903e-14
    22    2.510728397216e-03
    23   -4.363792735839e-03
    24   -3.462656491332e-09
    25    2.239414471806e-14
    26    1.521961067622e-01
    27   -6.885813300156e-02
    28   -1.192421182607e-09
    29    4.045491836385e-15
    30    1.421025131025e-02
    31   -1.539522542626e-03
    32    1.270559545571e-09
    33    5.409106456239e-14
    34   -4.003064014178e-03
    35   -5.387594313666e-15
    36    1.020489035277e-15
    37   -8.896880719697e-03
    38    1.160400361678e-09
    39   -9.613621247761e-05
    40   -7.261778693056e-04
    41   -3.851361874826e-03
    42   -1.258295678977e-02
    43   -3.153320832246e-02
    44   -1.277048929461e-02
    45   -8.035002393372e-02
    46   -1.363278040852e-04
    47    3.736580133218e-02
    48    3.409738288184e-14
    49    2.207492543443e-01
    50   -2.654048646014e-03
    51    5.278711314665e-02
    52    6.127791305859e-14
    53    1.277213931434e-01
    54    1.539205029035e-02
    55    3.161892807439e-02
    56    5.276407680697e-14
    57   -7.700057004137e-02
    58    1.947966760966e-02
    59    3.482483990013e-02
    60   -5.940808500962e-16
    61   -8.072254927337e-03
    62   -2.993421403442e-03
    63    6.903313031515e-04
    64   -4.365957449683e-14
    65   -8.971369379904e-03
    66   -3.729022599134e-15
    67   -2.555690606293e-15
    68    2.669631198477e-03
    69    7.829183940501e-04
    70    6.832471468228e-02
    71    9.850619100341e-02
    72    1.432040062301e-03
    73   -1.223092444571e-02
    74   -6.993655709719e-03
    75   -1.116340823456e-02
    76    3.823062887962e-15
    77   -9.613633933726e-05
    78   -7.261788494382e-04
    79   -3.851366788636e-03
    80   -1.258297358218e-02
    81   -3.153324810711e-02
    82   -1.277050428961e-02
    83   -8.035008173855e-02
    84    1.363209117719e-04
    85    3.736579709507e-02
    86    4.296525117346e-14
    87    2.207492773696e-01
    88    2.654038127814e-03
    89    5.278710681859e-02
    90    8.467234542247e-14
    91    1.277214210779e-01
    92   -1.539205029463e-02
    93    3.161892204726e-02
    94    5.083927924730e-14
    95   -7.700060857273e-02
    96   -1.947967306454e-02
    97    3.482484884958e-02
    98    7.262485878924e-15
    99   -8.072258213031e-03
   100    2.993421924954e-03
   101    6.903329788152e-04
   102    8.672116994197e-14
   103   -8.971370225192e-03
   104    3.454348988476e-15
   105   -6.501975615092e-15
   106    2.669630777347e-03
   107   -7.829165520349e-04
   108    6.832471902277e-02
   109    9.850619662628e-02
   110    1.432040092309e-03
   111   -1.223092268456e-02
   112    6.993655876003e-03
   113   -1.116340942025e-02
   114    2.986012717335e-15
   115   -3.522107124423e-05
   116   -2.670117642246e-04
   117   -1.404556391943e-03
   118   -4.650411529844e-03
   119   -1.181021385507e-02
   120   -3.518604705630e-03
   121   -2.639198482374e-02
   122    1.393542893916e-02
   123    7.962196918277e-09
   124    4.479834413698e-14
   125    6.741010392843e-02
   126    2.217713756615e-02
   127    1.230082633371e-08
   128    7.879519108035e-14
   129    2.510728396594e-03
   130    4.363792738486e-03
   131    3.456488830862e-09
   132    7.097414772223e-14
   133    1.521961071576e-01
   134    6.885813301194e-02
   135    1.660715984270e-09
   136    1.076235188605e-14
   137    1.421025132028e-02
   138    1.539522539204e-03
   139   -1.263132085144e-09
   140   -1.269159639542e-13
   141   -4.003064013942e-03
   142    6.930660162229e-15
   143    3.708849332139e-16
   144   -8.896880719837e-03
   145    1.159841784549e-09
   146   -1.584504217370e-03
   147   -7.057452450912e-03
   148   -7.857609248929e-03
   149    3.380052567921e-02
   150    1.776784405453e-03
   151    4.232379710798e-10
   152    4.989889971670e-15
   153   -9.613621227122e-05
   154   -7.261778677042e-04
   155   -3.851361866881e-03
   156   -1.258295676240e-02
   157   -3.153320825850e-02
   158   -1.277048927137e-02
   159   -8.035002385253e-02
   160    1.363278143885e-04
   161   -3.736580134557e-02
   162    3.893017936218e-14
   163    2.207492543805e-01
   164    2.654048664286e-03
   165   -5.278711316624e-02
   166    6.283457056716e-14
   167    1.277213931528e-01
   168   -1.539205028121e-02
   169   -3.161892809145e-02
   170    5.143386975216e-14
   171   -7.700056910959e-02
   172   -1.947966765006e-02
   173   -3.482483987783e-02
   174   -1.315516931821e-14
   175   -8.072254896572e-03
   176    2.993421407287e-03
   177   -6.903312995656e-04
   178    1.409679663424e-13
   179   -8.971369381877e-03
   180    2.812099966556e-15
   181    9.941681092216e-15
   182    2.669631199989e-03
   183    7.829183954629e-04
   184    6.832471469271e-02
   185    9.850619101789e-02
   186    1.432040048681e-03
   187   -1.223092443461e-02
   188    6.993655712147e-03
   189    1.116340823653e-02
   190    1.642062276766e-15
   191   -9.613633896172e-05
   192   -7.261788465231e-04
   193   -3.851366774138e-03
   194   -1.258297353233e-02
   195   -3.153324799008e-02
   196   -1.277050424700e-02
   197   -8.035008158717e-02
   198   -1.363209202947e-04
   199   -3.736579710887e-02
   200    2.573997045006e-14
   201    2.207492774117e-01
   202   -2.654038142638e-03
   203   -5.278710683814e-02
   204    5.208599953111e-14
   205    1.277214210943e-01
   206    1.539205028282e-02
   207   -3.161892206003e-02
   208    3.718870670744e-14
   209   -7.700060803279e-02
   210    1.947967344245e-02
   211   -3.482484865606e-02
   212    1.356154915567e-14
   213   -8.072258190799e-03
   214   -2.993421919122e-03
   215   -6.903329755487e-04
   216   -1.071575091859e-13
   217   -8.971370227641e-03
   218   -1.851958444172e-15
   219    3.977756635610e-15
   220    2.669630778678e-03
   221   -7.829165532488e-04
   222    6.832471903534e-02
   223    9.850619664421e-02
   224    1.432040084590e-03
   225   -1.223092270622e-02
   226   -6.993655878451e-03
   227    1.116340942298e-02
   228    1.282212228175e-15
Sym=X
Ene= 1.997128
Spin=Alpha
Occup=1
     1    5.835707100229e-09
     2    7.710889123154e-09
     3   -7.064329141979e-10
     4    4.287687487742e-09
     5   -1.324614028291e-09
     6   -4.300848036131e-05
     7    3.135684272923e-14
     8   -1.336821128559e-11
     9   -1.011528072941e-10
    10   -5.342611530814e-10
    11   -1.747171174280e-09
    12   -4.316396142213e-09
    13   -1.927888114766e-09
    14   -1.102350821864e-08
    15    3.437844594982e-10
    16   -2.118212482326e-02
    17    2.886338361076e-13
    18    2.911228443778e-08
    19    6.187536966143e-10
    20   -3.209458230322e-02
    21    5.310220413657e-13
    22    2.602689076733e-08
    23   -2.946980003804e-09
    24    1.339806135722e-02
    25    3.814210447766e-13
    26   -3.753608397178e-08
    27    9.683245377262e-09
    28   -4.657827923178e-03
    29   -8.693922478118e-14
    30   -3.193523073368e-09
    31   -1.289345633709e-10
    32   -2.620681875416e-03
    33    8.755990375471e-13
    34   -1.011854932208e-09
    35   -3.809668822953e-14
    36    8.063102859803e-14
    37   -7.057874776419e-10
    38    1.583130012376e-03
    39    7.718231100068e-05
    40    5.841128733331e-04
    41    3.087099607514e-03
    42    1.011603726745e-02
    43    2.507035854405e-02
    44    9.119662887868e-03
    45    6.422120041890e-02
    46   -4.181749692517e-02
    47   -5.234690890143e-02
    48    3.166061288909e-13
    49   -1.713748871261e-01
    50   -6.361979863563e-02
    51   -7.631366160842e-02
    52    5.748237133926e-13
    53   -1.280034477720e-01
    54   -3.307298805242e-02
    55   -6.284823512803e-02
    56    3.964464048400e-13
    57    2.760444353959e-01
    58   -6.477862213682e-02
    59   -1.148501351761e-01
    60    1.094777728339e-13
    61    2.667938959695e-02
    62   -3.414974814840e-03
    63   -3.437240443162e-03
    64   -8.592493949260e-13
    65    6.037940636043e-03
    66    1.496856717639e-14
    67   -5.738886927370e-14
    68    7.095551142625e-03
    69   -1.144537503699e-02
    70   -9.257372705613e-02
    71   -1.404337913065e-01
    72   -1.695692672305e-02
    73    5.584523303955e-02
    74    6.834225374500e-03
    75    1.212382725070e-02
    76    3.295783065572e-14
    77   -7.718228457710e-05
    78   -5.841126705472e-04
    79   -3.087098572902e-03
    80   -1.011603378797e-02
    81   -2.507035026521e-02
    82   -9.119659970564e-03
    83   -6.422118462616e-02
    84   -4.181751356367e-02
    85    5.234689453582e-02
    86    3.448208245031e-13
    87    1.713748630688e-01
    88   -6.361982441369e-02
    89    7.631363921263e-02
    90    5.895194122668e-13
    91    1.280034257304e-01
    92   -3.307299823330e-02
    93    6.284823156557e-02
    94    4.560370033202e-13
    95   -2.760443999823e-01
    96   -6.477861843855e-02
    97    1.148501253647e-01
    98   -6.253639745823e-14
    99   -2.667938657609e-02
   100   -3.414972742282e-03
   101    3.437241483851e-03
   102    8.415131324595e-13
   103   -6.037939882053e-03
   104    1.361548456360e-13
   105    1.685826781499e-14
   106   -7.095554468820e-03
   107   -1.144537355261e-02
   108    9.257372017164e-02
   109    1.404337812505e-01
   110    1.695692654021e-02
   111   -5.584523524921e-02
   112    6.834223608690e-03
   113   -1.212382640077e-02
   114    2.506852421369e-14
   115   -1.326565304724e-11
   116   -1.003617522587e-10
   117   -5.303346343803e-10
   118   -1.733635481802e-09
   119   -4.284779048050e-09
   120   -1.916821531107e-09
   121   -1.098554430050e-08
   122   -3.588009444672e-10
   123    2.118212482028e-02
   124    3.422835367691e-13
   125    2.914061060494e-08
   126   -6.405360232481e-10
   127    3.209458229893e-02
   128    5.721191565062e-13
   129    2.604819683691e-08
   130    2.934087820427e-09
   131   -1.339806136456e-02
   132    4.266216198992e-13
   133   -3.724765929918e-08
   134   -9.698963906499e-09
   135    4.657827744445e-03
   136    7.025552130244e-14
   137   -3.176540483473e-09
   138    1.301195643377e-10
   139    2.620681873498e-03
   140   -8.061521176450e-13
   141   -1.011747144672e-09
   142    6.715814894568e-14
   143    8.007057579091e-14
   144   -7.050770054190e-10
   145    1.583130012192e-03
   146    5.853733760987e-09
   147    7.738830894804e-09
   148   -7.064326512056e-10
   149    4.275694435898e-09
   150    1.329047420019e-09
   151    4.300848021707e-05
   152    1.392113346512e-14
   153    7.718231093589e-05
   154    5.841128728298e-04
   155    3.087099605008e-03
   156    1.011603725885e-02
   157    2.507035852365e-02
   158    9.119662879573e-03
   159    6.422120039111e-02
   160    4.181749692092e-02
   161    5.234690890213e-02
   162    3.211365828243e-13
   163   -1.713748871220e-01
   164    6.361979862394e-02
   165    7.631366160743e-02
   166    5.221603374330e-13
   167   -1.280034477656e-01
   168    3.307298805712e-02
   169    6.284823512201e-02
   170    4.103378072829e-13
   171    2.760444352697e-01
   172    6.477862233649e-02
   173    1.148501350583e-01
   174   -9.016640080800e-14
   175    2.667938959598e-02
   176    3.414974817818e-03
   177    3.437240442610e-03
   178    8.535554302144e-13
   179    6.037940634801e-03
   180    6.779599236871e-14
   181    3.221417182023e-14
   182    7.095551141563e-03
   183   -1.144537503674e-02
   184   -9.257372705233e-02
   185   -1.404337913065e-01
   186   -1.695692671740e-02
   187    5.584523303625e-02
   188   -6.834225375781e-03
   189   -1.212382725329e-02
   190    1.325040308160e-14
   191   -7.718228451745e-05
   192   -5.841126700848e-04
   193   -3.087098570588e-03
   194   -1.011603378005e-02
   195   -2.507035024634e-02
   196   -9.119659962828e-03
   197   -6.422118459950e-02
   198    4.181751356306e-02
   199   -5.234689453122e-02
   200    2.915035748491e-13
   201    1.713748630590e-01
   202    6.361982440833e-02
   203   -7.631363920321e-02
   204    4.951179638902e-13
   205    1.280034257052e-01
   206    3.307299823411e-02
   207   -6.284823155440e-02
   208    3.537662015831e-13
   209   -2.760444004266e-01
   210    6.477861846269e-02
   211   -1.148501253013e-01
   212    8.955991484494e-14
   213   -2.667938657776e-02
   214    3.414972742041e-03
   215   -3.437241481289e-03
   216   -8.424486597366e-13
   217   -6.037939880584e-03
   218    8.468963843564e-14
   219    1.034214743218e-13
   220   -7.095554468217e-03
   221   -1.144537355207e-02
   222    9.257372016462e-02
   223    1.404337812448e-01
   224    1.695692655814e-02
   225   -5.584523521264e-02
   226   -6.834223609594e-03
   227    1.212382640315e-02
   228    2.121558075923e-14
Sym=X
Ene= 1.997036
Spin=Alpha
Occup=1
     1   -1.043816853592e-02
     2   -1.350782427311e-02
     3    1.762778097839e-02
     4    2.859423901826e-02
     5    5.203465928328e-03
     6    3.872316592892e-10
     7   -1.743418070980e-14
     8    3.938948360519e-05
     9    2.987883133995e-04
    10    1.573129255197e-03
    11    5.210795063886e-03
    12    1.310045148226e-02
    13    3.145301225432e-03
    14    3.108317905088e-02
    15   -1.626109261384e-03
    16   -6.942941681116e-10
    17   -5.848115312937e-14
    18   -7.887538345467e-02
    19    1.718047959865e-04
    20    5.000042015869e-10
    21   -1.249703093545e-13
    22    1.121988187821e-02
    23   -1.147276480127e-02
    24   -2.708867692110e-09
    25    2.941520279990e-14
    26   -8.077937197829e-02
    27   -3.512225092020e-02
    28    1.515828423292e-08
    29   -7.985141497966e-12
    30   -3.899520768609e-03
    31    1.367104922502e-03
    32   -3.043535460492e-10
    33    1.470704373133e-11
    34    5.285349266291e-03
    35   -7.222129908268e-15
    36   -1.773210414344e-15
    37    1.546290352307e-02
    38   -1.646503692779e-09
    39    7.641374920763e-05
    40    5.778223007028e-04
    41    3.060578673304e-03
    42    1.001054940541e-02
    43    2.480699463590e-02
    44    8.475814995979e-03
    45    6.506157961192e-02
    46   -4.421053835489e-02
    47   -4.513438831416e-02
    48   -1.231349404168e-14
    49   -1.748433597829e-01
    50   -6.666814568919e-02
    51   -6.545062390385e-02
    52    3.051929225447e-15
    53   -1.472189559374e-01
    54   -3.081627029858e-02
    55   -3.916668179640e-02
    56   -1.236837198038e-13
    57   -3.881369982753e-02
    58    2.578346608822e-02
    59   -4.278948332032e-02
    60    7.973654536711e-12
    61   -1.517463687070e-03