[Molden Format]
[Atoms] (Angs)
  H      1    1      2.47503475      0.00000000     -0.00000000
  C      2    6      1.39359294      0.00000000     -0.00000000
  C      3    6      0.69679647      1.20688689      0.00000000
  H      4    1      1.23751738      2.14344297      0.00000000
  C      5    6     -0.69679647      1.20688689      0.00000000
  H      6    1     -1.23751738      2.14344297      0.00000000
  C      7    6     -1.39359294     -0.00000000      0.00000000
  H      8    1     -2.47503475     -0.00000000      0.00000000
  C      9    6     -0.69679647     -1.20688689     -0.00000000
  H     10    1     -1.23751738     -2.14344297     -0.00000000
  C     11    6      0.69679647     -1.20688689     -0.00000000
  H     12    1      1.23751738     -2.14344297     -0.00000000
[GTO]
1    0
S    3    1.000000
   3.38650000E+01    2.54938000E-02 
   5.09479000E+00    1.90373000E-01 
   1.15879000E+00    8.52161000E-01 
S    1    1.000000
   3.25840000E-01    1.00000000E+00 
S    1    1.000000
   1.02741000E-01    1.00000000E+00 
S    1    1.000000
   3.60000000E-02    1.00000000E+00 
P    1    1.000000
   7.50000000E-01    1.00000000E+00 

2    0
S    1    1.000000
   4.56324000E+03    1.96665000E-03 
S    1    1.000000
   6.82024000E+02    1.52306000E-02 
S    1    1.000000
   1.54973000E+02    7.61269000E-02 
S    1    1.000000
   4.44553000E+01    2.60801000E-01 
S    1    1.000000
   1.30290000E+01    6.16462000E-01 
S    1    1.000000
   1.82773000E+00    2.21006000E-01 
SP   3    1.000000
   2.09642000E+01    1.14660000E-01   4.02487000E-02 
   4.80331000E+00    9.19999000E-01   2.37594000E-01 
   1.45933000E+00   -3.03068000E-03   8.15854000E-01 
SP   1    1.000000
   4.83456000E-01    1.00000000E+00   1.00000000E+00 
SP   1    1.000000
   1.45585000E-01    1.00000000E+00   1.00000000E+00 
SP   1    1.000000
   4.38000000E-02    1.00000000E+00   1.00000000E+00 
SP   1    1.000000
   1.31927711E-02    1.00000000E+00   1.00000000E+00 
D    1    1.000000
   6.26000000E-01    1.00000000E+00 

3    0
S    1    1.000000
   4.56324000E+03    1.96665000E-03 
S    1    1.000000
   6.82024000E+02    1.52306000E-02 
S    1    1.000000
   1.54973000E+02    7.61269000E-02 
S    1    1.000000
   4.44553000E+01    2.60801000E-01 
S    1    1.000000
   1.30290000E+01    6.16462000E-01 
S    1    1.000000
   1.82773000E+00    2.21006000E-01 
SP   3    1.000000
   2.09642000E+01    1.14660000E-01   4.02487000E-02 
   4.80331000E+00    9.19999000E-01   2.37594000E-01 
   1.45933000E+00   -3.03068000E-03   8.15854000E-01 
SP   1    1.000000
   4.83456000E-01    1.00000000E+00   1.00000000E+00 
SP   1    1.000000
   1.45585000E-01    1.00000000E+00   1.00000000E+00 
SP   1    1.000000
   4.38000000E-02    1.00000000E+00   1.00000000E+00 
SP   1    1.000000
   1.31927711E-02    1.00000000E+00   1.00000000E+00 
D    1    1.000000
   6.26000000E-01    1.00000000E+00 

4    0
S    3    1.000000
   3.38650000E+01    2.54938000E-02 
   5.09479000E+00    1.90373000E-01 
   1.15879000E+00    8.52161000E-01 
S    1    1.000000
   3.25840000E-01    1.00000000E+00 
S    1    1.000000
   1.02741000E-01    1.00000000E+00 
S    1    1.000000
   3.60000000E-02    1.00000000E+00 
P    1    1.000000
   7.50000000E-01    1.00000000E+00 

5    0
S    1    1.000000
   4.56324000E+03    1.96665000E-03 
S    1    1.000000
   6.82024000E+02    1.52306000E-02 
S    1    1.000000
   1.54973000E+02    7.61269000E-02 
S    1    1.000000
   4.44553000E+01    2.60801000E-01 
S    1    1.000000
   1.30290000E+01    6.16462000E-01 
S    1    1.000000
   1.82773000E+00    2.21006000E-01 
SP   3    1.000000
   2.09642000E+01    1.14660000E-01   4.02487000E-02 
   4.80331000E+00    9.19999000E-01   2.37594000E-01 
   1.45933000E+00   -3.03068000E-03   8.15854000E-01 
SP   1    1.000000
   4.83456000E-01    1.00000000E+00   1.00000000E+00 
SP   1    1.000000
   1.45585000E-01    1.00000000E+00   1.00000000E+00 
SP   1    1.000000
   4.38000000E-02    1.00000000E+00   1.00000000E+00 
SP   1    1.000000
   1.31927711E-02    1.00000000E+00   1.00000000E+00 
D    1    1.000000
   6.26000000E-01    1.00000000E+00 

6    0
S    3    1.000000
   3.38650000E+01    2.54938000E-02 
   5.09479000E+00    1.90373000E-01 
   1.15879000E+00    8.52161000E-01 
S    1    1.000000
   3.25840000E-01    1.00000000E+00 
S    1    1.000000
   1.02741000E-01    1.00000000E+00 
S    1    1.000000
   3.60000000E-02    1.00000000E+00 
P    1    1.000000
   7.50000000E-01    1.00000000E+00 

7    0
S    1    1.000000
   4.56324000E+03    1.96665000E-03 
S    1    1.000000
   6.82024000E+02    1.52306000E-02 
S    1    1.000000
   1.54973000E+02    7.61269000E-02 
S    1    1.000000
   4.44553000E+01    2.60801000E-01 
S    1    1.000000
   1.30290000E+01    6.16462000E-01 
S    1    1.000000
   1.82773000E+00    2.21006000E-01 
SP   3    1.000000
   2.09642000E+01    1.14660000E-01   4.02487000E-02 
   4.80331000E+00    9.19999000E-01   2.37594000E-01 
   1.45933000E+00   -3.03068000E-03   8.15854000E-01 
SP   1    1.000000
   4.83456000E-01    1.00000000E+00   1.00000000E+00 
SP   1    1.000000
   1.45585000E-01    1.00000000E+00   1.00000000E+00 
SP   1    1.000000
   4.38000000E-02    1.00000000E+00   1.00000000E+00 
SP   1    1.000000
   1.31927711E-02    1.00000000E+00   1.00000000E+00 
D    1    1.000000
   6.26000000E-01    1.00000000E+00 

8    0
S    3    1.000000
   3.38650000E+01    2.54938000E-02 
   5.09479000E+00    1.90373000E-01 
   1.15879000E+00    8.52161000E-01 
S    1    1.000000
   3.25840000E-01    1.00000000E+00 
S    1    1.000000
   1.02741000E-01    1.00000000E+00 
S    1    1.000000
   3.60000000E-02    1.00000000E+00 
P    1    1.000000
   7.50000000E-01    1.00000000E+00 

9    0
S    1    1.000000
   4.56324000E+03    1.96665000E-03 
S    1    1.000000
   6.82024000E+02    1.52306000E-02 
S    1    1.000000
   1.54973000E+02    7.61269000E-02 
S    1    1.000000
   4.44553000E+01    2.60801000E-01 
S    1    1.000000
   1.30290000E+01    6.16462000E-01 
S    1    1.000000
   1.82773000E+00    2.21006000E-01 
SP   3    1.000000
   2.09642000E+01    1.14660000E-01   4.02487000E-02 
   4.80331000E+00    9.19999000E-01   2.37594000E-01 
   1.45933000E+00   -3.03068000E-03   8.15854000E-01 
SP   1    1.000000
   4.83456000E-01    1.00000000E+00   1.00000000E+00 
SP   1    1.000000
   1.45585000E-01    1.00000000E+00   1.00000000E+00 
SP   1    1.000000
   4.38000000E-02    1.00000000E+00   1.00000000E+00 
SP   1    1.000000
   1.31927711E-02    1.00000000E+00   1.00000000E+00 
D    1    1.000000
   6.26000000E-01    1.00000000E+00 

10    0
S    3    1.000000
   3.38650000E+01    2.54938000E-02 
   5.09479000E+00    1.90373000E-01 
   1.15879000E+00    8.52161000E-01 
S    1    1.000000
   3.25840000E-01    1.00000000E+00 
S    1    1.000000
   1.02741000E-01    1.00000000E+00 
S    1    1.000000
   3.60000000E-02    1.00000000E+00 
P    1    1.000000
   7.50000000E-01    1.00000000E+00 

11    0
S    1    1.000000
   4.56324000E+03    1.96665000E-03 
S    1    1.000000
   6.82024000E+02    1.52306000E-02 
S    1    1.000000
   1.54973000E+02    7.61269000E-02 
S    1    1.000000
   4.44553000E+01    2.60801000E-01 
S    1    1.000000
   1.30290000E+01    6.16462000E-01 
S    1    1.000000
   1.82773000E+00    2.21006000E-01 
SP   3    1.000000
   2.09642000E+01    1.14660000E-01   4.02487000E-02 
   4.80331000E+00    9.19999000E-01   2.37594000E-01 
   1.45933000E+00   -3.03068000E-03   8.15854000E-01 
SP   1    1.000000
   4.83456000E-01    1.00000000E+00   1.00000000E+00 
SP   1    1.000000
   1.45585000E-01    1.00000000E+00   1.00000000E+00 
SP   1    1.000000
   4.38000000E-02    1.00000000E+00   1.00000000E+00 
SP   1    1.000000
   1.31927711E-02    1.00000000E+00   1.00000000E+00 
D    1    1.000000
   6.26000000E-01    1.00000000E+00 

12    0
S    3    1.000000
   3.38650000E+01    2.54938000E-02 
   5.09479000E+00    1.90373000E-01 
   1.15879000E+00    8.52161000E-01 
S    1    1.000000
   3.25840000E-01    1.00000000E+00 
S    1    1.000000
   1.02741000E-01    1.00000000E+00 
S    1    1.000000
   3.60000000E-02    1.00000000E+00 
P    1    1.000000
   7.50000000E-01    1.00000000E+00 

[MO]
Sym=X
Ene= 1.996217
Spin=Alpha
Occup=1
     1    4.366911791000e-02
     2    6.046548600536e-02
     3   -4.396006876072e-03
     4    5.042787061529e-04
     5   -9.456133148437e-03
     6   -5.871757616660e-11
     7   -4.833283493061e-16
     8   -8.708960911132e-05
     9   -6.576254695737e-04
    10   -3.493528105103e-03
    11   -1.142867969774e-02
    12   -2.882083060928e-02
    13   -9.677097225733e-03
    14   -7.362074924782e-02
    15    7.074108874889e-03
    16   -1.624062848491e-10
    17   -1.001287004134e-14
    18    2.057361342701e-01
    19    6.184644154429e-03
    20    5.118328086080e-11
    21   -1.643626160606e-14
    22    9.767387843796e-02
    23    1.608297145594e-02
    24    1.532024580657e-09
    25   -1.276969854892e-14
    26    1.609264230333e-03
    27    5.722148966284e-03
    28   -7.405986859414e-10
    29   -1.437172467678e-14
    30   -3.635820943304e-04
    31   -1.378345920165e-03
    32    1.154413071284e-09
    33   -1.527454773475e-13
    34   -9.140857912448e-03
    35    1.646673622077e-15
    36    1.914895703321e-15
    37   -3.601645193098e-03
    38   -1.197819077688e-10
    39   -8.707686552456e-05
    40   -6.575290642515e-04
    41   -3.493018073946e-03
    42   -1.142700986353e-02
    43   -2.881669050200e-02
    44   -9.675597281997e-03
    45   -7.361004185066e-02
    46    3.534173630856e-03
    47    6.116235711545e-03
    48   -9.321105037645e-15
    49    2.057072806430e-01
    50    3.088406452076e-03
    51    5.341461509030e-03
    52   -1.277441547440e-14
    53    9.765188497137e-02
    54    8.036339288979e-03
    55    1.391989564751e-02
    56   -5.178723415243e-15
    57    1.653214348886e-03
    58    2.850669580926e-03
    59    4.937256143934e-03
    60    1.096699147167e-14
    61   -3.593185425393e-04
    62   -6.890833997360e-04
    63   -1.194268750823e-03
    64    1.953084237615e-13
    65   -9.139869800957e-03
    66    2.314248678578e-15
    67    1.018040764575e-15
    68    1.801533137321e-03
    69   -3.120905086750e-03
    70    4.365478989931e-02
    71    6.044383990465e-02
    72   -4.398293549932e-03
    73    5.131906666906e-04
    74   -4.726904087469e-03
    75   -8.187331021149e-03
    76    2.510597260631e-16
    77   -8.707702932212e-05
    78   -6.575303325418e-04
    79   -3.493024397052e-03
    80   -1.142703157211e-02
    81   -2.881674167697e-02
    82   -9.675616078011e-03
    83   -7.361011017967e-02
    84   -3.534173398561e-03
    85    6.116234994290e-03
    86   -1.437665986621e-14
    87    2.057072757506e-01
    88   -3.088405717358e-03
    89    5.341460361377e-03
    90   -1.200143769712e-14
    91    9.765189293568e-02
    92   -8.036336331820e-03
    93    1.391989358859e-02
    94   -2.059891719988e-14
    95    1.653209493812e-03
    96   -2.850671026078e-03
    97    4.937257887323e-03
    98   -5.238006295206e-15
    99   -3.593189684775e-04
   100    6.890832211543e-04
   101   -1.194266111677e-03
   102   -1.583351992576e-13
   103   -9.139869956516e-03
   104    3.841693947916e-16
   105    1.861977253555e-15
   106    1.801533561744e-03
   107    3.120905577547e-03
   108    4.365478848095e-02
   109    6.044383746723e-02
   110   -4.398292685289e-03
   111    5.131876865474e-04
   112    4.726903942405e-03
   113   -8.187330884778e-03
   114   -1.983264456863e-15
   115   -8.708960926204e-05
   116   -6.576254707409e-04
   117   -3.493528110920e-03
   118   -1.142867971772e-02
   119   -2.882083065635e-02
   120   -9.677097242782e-03
   121   -7.362074931028e-02
   122   -7.074108874258e-03
   123    1.537854244736e-10
   124   -1.311634116906e-14
   125    2.057361342639e-01
   126   -6.184644153674e-03
   127   -7.054974536758e-11
   128   -2.135569430930e-14
   129    9.767387843687e-02
   130   -1.608297145442e-02
   131   -1.538318485253e-09
   132   -1.662042451346e-14
   133    1.609264368162e-03
   134   -5.722148951831e-03
   135    8.875177191085e-10
   136    2.097767623742e-14
   137   -3.635820899889e-04
   138    1.378345921149e-03
   139   -1.159908431485e-09
   140    1.020745097357e-13
   141   -9.140857912125e-03
   142   -2.787050243775e-15
   143   -3.242512564990e-16
   144   -3.601645193401e-03
   145   -1.239474810120e-10
   146    4.366911790847e-02
   147    6.046548600387e-02
   148   -4.396006874371e-03
   149    5.042787234260e-04
   150    9.456133148031e-03
   151    5.670516827453e-11
   152    1.135190888227e-15
   153   -8.707686433779e-05
   154   -6.575290550608e-04
   155   -3.493018028165e-03
   156   -1.142700970622e-02
   157   -2.881669013157e-02
   158   -9.675597147492e-03
   159   -7.361004136158e-02
   160   -3.534173629995e-03
   161   -6.116235719953e-03
   162   -1.503208956317e-14
   163    2.057072807030e-01
   164   -3.088406446597e-03
   165   -5.341461521895e-03
   166   -3.015740075868e-14
   167    9.765188499706e-02
   168   -8.036339288464e-03
   169   -1.391989565324e-02
   170   -1.357916740215e-14
   171    1.653214646359e-03
   172   -2.850669585193e-03
   173   -4.937256140143e-03
   174   -3.907317985561e-14
   175   -3.593185314248e-04
   176    6.890834068359e-04
   177    1.194268755992e-03
   178   -5.788940939121e-14
   179   -9.139869804224e-03
   180    1.398700218336e-15
   181   -4.903811158684e-16
   182    1.801533138488e-03
   183   -3.120905084035e-03
   184    4.365478991539e-02
   185    6.044383992282e-02
   186   -4.398293544640e-03
   187    5.131906679753e-04
   188    4.726904090531e-03
   189    8.187331024070e-03
   190   -1.947280499654e-15
   191   -8.707702798630e-05
   192   -6.575303221953e-04
   193   -3.493024345499e-03
   194   -1.142703139501e-02
   195   -2.881674125987e-02
   196   -9.675615926509e-03
   197   -7.361010962864e-02
   198    3.534173398964e-03
   199   -6.116235002287e-03
   200   -1.672977548173e-14
   201    2.057072758157e-01
   202    3.088405714516e-03
   203   -5.341460372752e-03
   204   -1.620489443320e-14
   205    9.765189296823e-02
   206    8.036336330148e-03
   207   -1.391989359167e-02
   208   -2.182514896415e-14
   209    1.653209655114e-03
   210    2.850671157818e-03
   211   -4.937257832625e-03
   212    3.776668583734e-14
   213   -3.593189615514e-04
   214   -6.890832253945e-04
   215    1.194266115220e-03
   216    8.852155029685e-14
   217   -9.139869960177e-03
   218    4.741350254642e-15
   219   -1.039901689432e-16
   220    1.801533562424e-03
   221    3.120905575144e-03
   222    4.365478849802e-02
   223    6.044383748728e-02
   224   -4.398292682471e-03
   225    5.131876639192e-04
   226   -4.726903945383e-03
   227    8.187330888307e-03
   228   -1.623918965671e-15
Sym=X
Ene= 1.995886
Spin=Alpha
Occup=1
     1   -8.726197479685e-02
     2   -1.291005618816e-01
     3   -9.759881238986e-04
     4    3.581023497392e-02
     5    1.653402225467e-02
     6   -4.260418664219e-10
     7   -3.053722598559e-14
     8    1.016721331076e-04
     9    7.687313223002e-04
    10    4.076078440052e-03
    11    1.335908571598e-02
    12    3.335859193779e-02
    13    9.581793646985e-03
    14    8.677713801833e-02
    15   -5.631462517257e-02
    16   -2.437205587332e-09
    17   -8.593659693635e-14
    18   -2.353588807216e-01
    19   -7.796617153451e-02
    20   -1.993739482659e-09
    21   -2.018752656209e-13
    22   -1.282049317466e-01
    23   -5.217644483656e-02
    24   -2.955686647180e-10
    25    1.146986148565e-13
    26   -1.062646391649e-01
    27   -5.345869070346e-02
    28    4.049202559897e-08
    29   -1.521865088201e-11
    30   -4.797226125291e-03
    31    4.371913758130e-03
    32   -1.006123492642e-10
    33    2.664900202695e-11
    34    9.982972378162e-03
    35   -1.773496529728e-14
    36   -1.287916789298e-15
    37    9.844874866901e-04
    38   -1.543877038834e-09
    39    5.082991050743e-05
    40    3.843191421379e-04
    41    2.037792344121e-03
    42    6.678737245307e-03
    43    1.667730675755e-02
    44    4.790260953135e-03
    45    4.338318128123e-02
    46   -3.384114545145e-02
    47   -1.296745599615e-02
    48    1.454924026908e-14
    49   -1.176646919056e-01
    50   -4.957053632095e-02
    51   -1.638305441677e-02
    52    7.714842202093e-14
    53   -6.408622217219e-02
    54   -1.897338895421e-02
    55   -1.916435882248e-02
    56   -2.116281040819e-13
    57   -5.313254348465e-02
    58    3.705212987669e-02
    59   -5.225562242017e-02
    60    1.521716024953e-11
    61   -2.398660993035e-03
    62   -1.947199363567e-03
    63    3.647982254281e-03
    64   -2.665037421495e-11
    65    4.991130570267e-03
    66    1.259521078810e-14
    67    2.420568384502e-14
    68    2.448050970820e-03
    69    1.984465488833e-03
    70   -4.362218439546e-02
    71   -6.453688520298e-02
    72   -4.849573729693e-04
    73    1.790547490110e-02
    74    3.455821233617e-03
    75    7.549391915713e-03
    76    2.399157018041e-14
    77   -5.082983062598e-05
    78   -3.843185225587e-04
    79   -2.037789267207e-03
    80   -6.678726646840e-03
    81   -1.667728194345e-02
    82   -4.790252622920e-03
    83   -4.338314950990e-02
    84   -3.384113520684e-02
    85    1.296745775629e-02
    86   -1.004676095175e-13
    87    1.176647060427e-01
    88   -4.957051930169e-02
    89    1.638305976788e-02
    90   -2.148265006214e-13
    91    6.408622127248e-02
    92   -1.897338106892e-02
    93    1.916436242111e-02
    94    9.936254479136e-14
    95    5.313241630442e-02
    96    3.705217056214e-02
    97    5.225563174830e-02
    98   -1.522270918803e-11
    99    2.398656879365e-03
   100   -1.947198972275e-03
   101   -3.647981475642e-03
   102    2.662545656492e-11
   103   -4.991130023628e-03
   104    1.000901281807e-14
   105   -1.426682299791e-14
   106   -2.448049338733e-03
   107    1.984463252158e-03
   108    4.362218411097e-02
   109    6.453688036230e-02
   110    4.849615307625e-04
   111   -1.790546415096e-02
   112    3.455820692585e-03
   113   -7.549390647408e-03
   114   -2.945815937403e-14
   115   -1.016721330665e-04
   116   -7.687313219819e-04
   117   -4.076078438464e-03
   118   -1.335908571053e-02
   119   -3.335859192497e-02
   120   -9.581793642572e-03
   121   -8.677713800116e-02
   122   -5.631462517174e-02
   123   -2.436797532233e-09
   124    2.189439887738e-14
   125    2.353588807229e-01
   126   -7.796617153284e-02
   127   -2.000416945570e-09
   128    8.628937833406e-14
   129    1.282049317525e-01
   130   -5.217644483601e-02
   131   -2.741729973867e-10
   132   -1.957581492348e-13
   133    1.062646390429e-01
   134   -5.345869068711e-02
   135    4.065883403144e-08
   136    1.521034982538e-11
   137    4.797226118101e-03
   138    4.371913731018e-03
   139   -7.472713629765e-11
   140   -2.660459763164e-11
   141   -9.982972378170e-03
   142   -2.828835517618e-14
   143   -1.123125056708e-15
   144   -9.844874870691e-04
   145    1.543771336610e-09
   146    8.726197479608e-02
   147    1.291005618802e-01
   148    9.759881234142e-04
   149   -3.581023494521e-02
   150    1.653402225484e-02
   151   -4.251994128652e-10
   152    2.496510409504e-14
   153   -5.082991010911e-05
   154   -3.843191390491e-04
   155   -2.037792328738e-03
   156   -6.678737192442e-03
   157   -1.667730663310e-02
   158   -4.790260907932e-03
   159   -4.338318111829e-02
   160   -3.384114545721e-02
   161   -1.296745600792e-02
   162   -8.319177567205e-14
   163    1.176646919347e-01
   164   -4.957053632984e-02
   165   -1.638305443988e-02
   166   -1.952776936124e-13
   167    6.408622218880e-02
   168   -1.897338898070e-02
   169   -1.916435884061e-02
   170    1.196977241866e-13
   171    5.313254333608e-02
   172    3.705212963796e-02
   173   -5.225562238525e-02
   174   -1.521606741765e-11
   175    2.398660978093e-03
   176   -1.947199342142e-03
   177    3.647982229326e-03
   178    2.660510196756e-11
   179   -4.991130571884e-03
   180    1.375300916478e-14
   181    1.499323921528e-14
   182   -2.448050972609e-03
   183   -1.984465484625e-03
   184    4.362218441217e-02
   185    6.453688521624e-02
   186    4.849573662402e-04
   187   -1.790547496068e-02
   188    3.455821233528e-03
   189    7.549391915511e-03
   190   -3.138899524521e-14
   191    5.082983042066e-05
   192    3.843185209726e-04
   193    2.037789259296e-03
   194    6.678726619674e-03
   195    1.667728187942e-02
   196    4.790252599144e-03
   197    4.338314942705e-02
   198   -3.384113521181e-02
   199    1.296745776694e-02
   200    3.392492690054e-14
   201   -1.176647060609e-01
   202   -4.957051930991e-02
   203    1.638305978933e-02
   204    1.067343967111e-13
   205   -6.408622129033e-02
   206   -1.897338109534e-02
   207    1.916436243788e-02
   208   -1.745084605175e-13
   209   -5.313241600810e-02
   210    3.705217038350e-02
   211    5.225563171466e-02
   212    1.520011263729e-11
   213   -2.398656855454e-03
   214   -1.947199007459e-03
   215   -3.647981453597e-03
   216   -2.662111450587e-11
   217    4.991130024993e-03
   218    1.215310653823e-14
   219   -2.232865569262e-14
   220    2.448049340373e-03
   221   -1.984463248443e-03
   222   -4.362218412401e-02
   223   -6.453688036944e-02
   224   -4.849615267726e-04
   225    1.790546415789e-02
   226    3.455820692431e-03
   227   -7.549390646786e-03
   228    2.417990956037e-14
Sym=X
Ene= 1.995885
Spin=Alpha
Occup=1
     1   -1.771613857819e-09
     2   -3.817016184826e-09
     3    4.905371014441e-10
     4    4.418703390303e-09
     5    6.462100290839e-10
     6   -9.028514882278e-04
     7    3.423968099569e-14
     8    3.947765818171e-12
     9    2.961151104172e-11
    10    1.591620134588e-10
    11    5.140976470068e-10
    12    1.342788108677e-09
    13    8.162982520683e-10
    14    3.394689987252e-09
    15    6.167216903738e-10
    16   -2.635483052231e-02
    17    6.843968983732e-14
    18   -1.166937221461e-08
    19    1.359011476469e-09
    20   -4.011258805770e-02
    21    1.817872761381e-13
    22   -9.825683517262e-10
    23    1.677680135104e-09
    24   -7.909307147101e-03
    25   -2.092914498622e-13
    26    7.261063480343e-08
    27   -3.590334902324e-09
    28    6.722185073005e-02
    29    1.843981663457e-11
    30    2.354346003676e-09
    31   -1.602524119526e-09
    32   -4.053369523246e-03
    33   -3.249671244725e-11
    34   -9.373451042358e-10
    35    2.806027815912e-14
    36   -1.309768543803e-15
    37   -7.586207239921e-10
    38    3.593847967959e-03
    39    8.804733892127e-05
    40    6.657158846830e-04
    41    3.529854768233e-03
    42    1.156887836924e-02
    43    2.888833121503e-02
    44    8.297466756199e-03
    45    7.514833583497e-02
    46   -1.297166248003e-02
    47   -4.882104434365e-02
    48   -6.686327327964e-14
    49   -2.038188720334e-01
    50   -1.638908503292e-02
    51   -6.849719281468e-02
    52   -1.844221093980e-13
    53   -1.110191450294e-01
    54   -1.916720279294e-02
    55   -4.110689788352e-02
    56    1.993779652664e-13
    57   -9.202777575969e-02
    58   -5.225588389207e-02
    59   -2.328802996215e-02
    60   -1.840612719481e-11
    61   -4.154530906618e-03
    62    3.648099057885e-03
    63    2.265444587159e-03
    64    3.245211393159e-11
    65    8.645321893397e-03
    66   -1.524413335476e-14
    67   -2.748300647325e-14
    68   -1.983089431469e-03
    69   -1.588638448343e-04
    70   -7.556586048249e-02
    71   -1.117963487109e-01
    72   -8.434395223656e-04
    73    3.101262809238e-02
    74    7.550035146372e-03
    75    1.217424234110e-02
    76   -3.630230964407e-14
    77    8.804748575440e-05
    78    6.657170214647e-04
    79    3.529860437683e-03
    80    1.156889782953e-02
    81    2.888837712259e-02
    82    8.297483571409e-03
    83    7.514839735739e-02
    84    1.297166239982e-02
    85   -4.882104921298e-02
    86    7.355214205539e-14
    87   -2.038188687460e-01
    88    1.638907977025e-02
    89   -6.849719899125e-02
    90    1.860892496403e-13
    91   -1.110191540298e-01
    92    1.916719600919e-02
    93   -4.110690026012e-02
    94   -1.869126477924e-13
    95   -9.202785908841e-02
    96    5.225583469347e-02
    97   -2.328809086426e-02
    98    1.837552642538e-11
    99   -4.154533556267e-03
   100   -3.648098176988e-03
   101    2.265442193097e-03
   102   -3.239682160091e-11
   103    8.645320794000e-03
   104   -1.481214170702e-14
   105    2.300668280200e-14
   106   -1.983092669113e-03
   107    1.588650858391e-04
   108   -7.556586474655e-02
   109   -1.117963647897e-01
   110   -8.434322557674e-04
   111    3.101265491792e-02
   112   -7.550036622241e-03
   113    1.217424543711e-02
   114    3.490327491624e-14
   115   -5.052896754174e-12
   116   -3.817613334437e-11
   117   -2.018194719280e-10
   118   -6.606777372989e-10
   119   -1.687632213152e-09
   120   -9.397775235326e-10
   121   -3.848144107486e-09
   122    6.324039097764e-10
   123   -2.635483052263e-02
   124   -6.055045492030e-14
   125    1.159218464933e-08
   126    1.385408935786e-09
   127   -4.011258805865e-02
   128   -1.653278720359e-13
   129    9.722399807892e-10
   130    1.711782794474e-09
   131   -7.909307138064e-03
   132    2.027454382385e-13
   133   -7.274321651884e-08
   134   -3.551339308786e-09
   135    6.722185036902e-02
   136   -1.837952747960e-11
   137   -2.359222637815e-09
   138   -1.667077867810e-09
   139   -4.053369498033e-03
   140    3.241325742107e-11
   141    9.406380021764e-10
   142    2.871467786313e-14
   143    1.727064557060e-16
   144    7.537458880747e-10
   145   -3.593847967943e-03
   146    1.742710530667e-09
   147    3.787947907664e-09
   148   -5.098944093785e-10
   149   -4.387910092129e-09
   150    6.448692212730e-10
   151   -9.028514884294e-04
   152   -3.344374705288e-14
   153   -8.804733953932e-05
   154   -6.657158894737e-04
   155   -3.529854792093e-03
   156   -1.156887845125e-02
   157   -2.888833140775e-02
   158   -8.297466824231e-03
   159   -7.514833608897e-02
   160   -1.297166248107e-02
   161   -4.882104434512e-02
   162    7.438066414903e-14
   163    2.038188719897e-01
   164   -1.638908503457e-02
   165   -6.849719282302e-02
   166    1.822026076595e-13
   167    1.110191449943e-01
   168   -1.916720279631e-02
   169   -4.110689788236e-02
   170   -1.914792410892e-13
   171    9.202777605752e-02
   172   -5.225588356677e-02
   173   -2.328803004642e-02
   174    1.841936533546e-11
   175    4.154530932770e-03
   176    3.648099132451e-03
   177    2.265444558218e-03
   178   -3.245201422141e-11
   179   -8.645321892824e-03
   180   -1.277384760264e-14
   181   -1.951835233571e-14
   182    1.983089430490e-03
   183    1.588638462806e-04
   184    7.556586047729e-02
   185    1.117963486979e-01
   186    8.434395480014e-04
   187   -3.101262804877e-02
   188    7.550035144478e-03
   189    1.217424233872e-02
   190    3.194718519735e-14
   191   -8.804748630161e-05
   192   -6.657170256983e-04
   193   -3.529860458771e-03
   194   -1.156889790201e-02
   195   -2.888837729289e-02
   196   -8.297483631189e-03
   197   -7.514839758238e-02
   198    1.297166240245e-02
   199   -4.882104921734e-02
   200   -6.223701264293e-14
   201    2.038188687098e-01
   202    1.638907977576e-02
   203   -6.849719900392e-02
   204   -1.739990532999e-13
   205    1.110191540025e-01
   206    1.916719600533e-02
   207   -4.110690027780e-02
   208    2.121642232321e-13
   209    9.202785891821e-02
   210    5.225583513264e-02
   211   -2.328809075677e-02
   212   -1.844868511427e-11
   213    4.154533534167e-03
   214   -3.648098235267e-03
   215    2.265442219988e-03
   216    3.251250309792e-11
   217   -8.645320793516e-03
   218   -1.279965310761e-14
   219    2.381691445192e-14
   220    1.983092667722e-03
   221   -1.588650880846e-04
   222    7.556586474440e-02
   223    1.117963647815e-01
   224    8.434322494902e-04
   225   -3.101265498806e-02
   226   -7.550036620509e-03
   227    1.217424543505e-02
   228   -3.292193046644e-14
Sym=X
Ene= 1.995133
Spin=Alpha
Occup=1
     1   -1.052096389475e-01
     2   -1.587439585923e-01
     3   -1.867834938757e-02
     4    6.189879234351e-02
     5    1.613517341665e-02
     6   -8.925022745601e-10
     7    7.272079601296e-15
     8    9.241396917938e-05
     9    6.999792909485e-04
    10    3.696621019333e-03
    11    1.215345320461e-02
    12    3.013882912740e-02
    13    8.237083627628e-03
    14    7.703398911715e-02
    15   -7.780615554091e-02
    16   -1.529153992064e-08
    17    1.013256539183e-13
    18   -2.047284439644e-01
    19   -1.106935057698e-01
    20   -2.414091609439e-08
    21    1.801135767115e-13
    22   -1.497684434607e-01
    23   -7.727053538687e-02
    24   -4.455204846407e-09
    25    1.116198079427e-13
    26    3.021074279603e-01
    27   -1.458722866851e-01
    28   -1.296435438477e-08
    29    3.396829463841e-14
    30    2.931125320680e-02
    31   -4.432142811788e-03
    32    6.097775417235e-09
    33    6.169379810296e-13
    34    7.088984907891e-03
    35   -2.108248776470e-14
    36   -1.160903932988e-15
    37   -1.500812662587e-02
    38    2.359054274966e-09
    39   -4.622048016635e-05
    40   -3.500915421912e-04
    41   -1.848852188987e-03
    42   -6.078500210881e-03
    43   -1.507390307640e-02
    44   -4.119913912727e-03
    45   -3.852844907212e-02
    46    1.805785567385e-03
    47    4.387365784916e-02
    48    1.104040587686e-13
    49    1.023966524479e-01
    50    1.838605489648e-04
    51    6.379442353543e-02
    52    1.885255139658e-13
    53    7.489769620318e-02
    54    2.610972357263e-02
    55    2.953603182569e-02
    56    1.519013546238e-13
    57   -1.510525048385e-01
    58    3.543442888160e-02
    59    6.376299887715e-02
    60   -1.004717662088e-14
    61   -1.465551575432e-02