[Molden Format]
[Atoms] (Angs)
  H      1    1      2.47503475      0.00000000     -0.00000000
  C      2    6      1.39359294      0.00000000     -0.00000000
  C      3    6      0.69679647      1.20688689      0.00000000
  H      4    1      1.23751738      2.14344297      0.00000000
  C      5    6     -0.69679647      1.20688689      0.00000000
  H      6    1     -1.23751738      2.14344297      0.00000000
  C      7    6     -1.39359294     -0.00000000      0.00000000
  H      8    1     -2.47503475     -0.00000000      0.00000000
  C      9    6     -0.69679647     -1.20688689     -0.00000000
  H     10    1     -1.23751738     -2.14344297     -0.00000000
  C     11    6      0.69679647     -1.20688689     -0.00000000
  H     12    1      1.23751738     -2.14344297     -0.00000000
[GTO]
1    0
S    3    1.000000
   3.38650000E+01    2.54938000E-02 
   5.09479000E+00    1.90373000E-01 
   1.15879000E+00    8.52161000E-01 
S    1    1.000000
   3.25840000E-01    1.00000000E+00 
S    1    1.000000
   1.02741000E-01    1.00000000E+00 
S    1    1.000000
   3.60000000E-02    1.00000000E+00 
P    1    1.000000
   7.50000000E-01    1.00000000E+00 

2    0
S    1    1.000000
   4.56324000E+03    1.96665000E-03 
S    1    1.000000
   6.82024000E+02    1.52306000E-02 
S    1    1.000000
   1.54973000E+02    7.61269000E-02 
S    1    1.000000
   4.44553000E+01    2.60801000E-01 
S    1    1.000000
   1.30290000E+01    6.16462000E-01 
S    1    1.000000
   1.82773000E+00    2.21006000E-01 
SP   3    1.000000
   2.09642000E+01    1.14660000E-01   4.02487000E-02 
   4.80331000E+00    9.19999000E-01   2.37594000E-01 
   1.45933000E+00   -3.03068000E-03   8.15854000E-01 
SP   1    1.000000
   4.83456000E-01    1.00000000E+00   1.00000000E+00 
SP   1    1.000000
   1.45585000E-01    1.00000000E+00   1.00000000E+00 
SP   1    1.000000
   4.38000000E-02    1.00000000E+00   1.00000000E+00 
SP   1    1.000000
   1.31927711E-02    1.00000000E+00   1.00000000E+00 
D    1    1.000000
   6.26000000E-01    1.00000000E+00 

3    0
S    1    1.000000
   4.56324000E+03    1.96665000E-03 
S    1    1.000000
   6.82024000E+02    1.52306000E-02 
S    1    1.000000
   1.54973000E+02    7.61269000E-02 
S    1    1.000000
   4.44553000E+01    2.60801000E-01 
S    1    1.000000
   1.30290000E+01    6.16462000E-01 
S    1    1.000000
   1.82773000E+00    2.21006000E-01 
SP   3    1.000000
   2.09642000E+01    1.14660000E-01   4.02487000E-02 
   4.80331000E+00    9.19999000E-01   2.37594000E-01 
   1.45933000E+00   -3.03068000E-03   8.15854000E-01 
SP   1    1.000000
   4.83456000E-01    1.00000000E+00   1.00000000E+00 
SP   1    1.000000
   1.45585000E-01    1.00000000E+00   1.00000000E+00 
SP   1    1.000000
   4.38000000E-02    1.00000000E+00   1.00000000E+00 
SP   1    1.000000
   1.31927711E-02    1.00000000E+00   1.00000000E+00 
D    1    1.000000
   6.26000000E-01    1.00000000E+00 

4    0
S    3    1.000000
   3.38650000E+01    2.54938000E-02 
   5.09479000E+00    1.90373000E-01 
   1.15879000E+00    8.52161000E-01 
S    1    1.000000
   3.25840000E-01    1.00000000E+00 
S    1    1.000000
   1.02741000E-01    1.00000000E+00 
S    1    1.000000
   3.60000000E-02    1.00000000E+00 
P    1    1.000000
   7.50000000E-01    1.00000000E+00 

5    0
S    1    1.000000
   4.56324000E+03    1.96665000E-03 
S    1    1.000000
   6.82024000E+02    1.52306000E-02 
S    1    1.000000
   1.54973000E+02    7.61269000E-02 
S    1    1.000000
   4.44553000E+01    2.60801000E-01 
S    1    1.000000
   1.30290000E+01    6.16462000E-01 
S    1    1.000000
   1.82773000E+00    2.21006000E-01 
SP   3    1.000000
   2.09642000E+01    1.14660000E-01   4.02487000E-02 
   4.80331000E+00    9.19999000E-01   2.37594000E-01 
   1.45933000E+00   -3.03068000E-03   8.15854000E-01 
SP   1    1.000000
   4.83456000E-01    1.00000000E+00   1.00000000E+00 
SP   1    1.000000
   1.45585000E-01    1.00000000E+00   1.00000000E+00 
SP   1    1.000000
   4.38000000E-02    1.00000000E+00   1.00000000E+00 
SP   1    1.000000
   1.31927711E-02    1.00000000E+00   1.00000000E+00 
D    1    1.000000
   6.26000000E-01    1.00000000E+00 

6    0
S    3    1.000000
   3.38650000E+01    2.54938000E-02 
   5.09479000E+00    1.90373000E-01 
   1.15879000E+00    8.52161000E-01 
S    1    1.000000
   3.25840000E-01    1.00000000E+00 
S    1    1.000000
   1.02741000E-01    1.00000000E+00 
S    1    1.000000
   3.60000000E-02    1.00000000E+00 
P    1    1.000000
   7.50000000E-01    1.00000000E+00 

7    0
S    1    1.000000
   4.56324000E+03    1.96665000E-03 
S    1    1.000000
   6.82024000E+02    1.52306000E-02 
S    1    1.000000
   1.54973000E+02    7.61269000E-02 
S    1    1.000000
   4.44553000E+01    2.60801000E-01 
S    1    1.000000
   1.30290000E+01    6.16462000E-01 
S    1    1.000000
   1.82773000E+00    2.21006000E-01 
SP   3    1.000000
   2.09642000E+01    1.14660000E-01   4.02487000E-02 
   4.80331000E+00    9.19999000E-01   2.37594000E-01 
   1.45933000E+00   -3.03068000E-03   8.15854000E-01 
SP   1    1.000000
   4.83456000E-01    1.00000000E+00   1.00000000E+00 
SP   1    1.000000
   1.45585000E-01    1.00000000E+00   1.00000000E+00 
SP   1    1.000000
   4.38000000E-02    1.00000000E+00   1.00000000E+00 
SP   1    1.000000
   1.31927711E-02    1.00000000E+00   1.00000000E+00 
D    1    1.000000
   6.26000000E-01    1.00000000E+00 

8    0
S    3    1.000000
   3.38650000E+01    2.54938000E-02 
   5.09479000E+00    1.90373000E-01 
   1.15879000E+00    8.52161000E-01 
S    1    1.000000
   3.25840000E-01    1.00000000E+00 
S    1    1.000000
   1.02741000E-01    1.00000000E+00 
S    1    1.000000
   3.60000000E-02    1.00000000E+00 
P    1    1.000000
   7.50000000E-01    1.00000000E+00 

9    0
S    1    1.000000
   4.56324000E+03    1.96665000E-03 
S    1    1.000000
   6.82024000E+02    1.52306000E-02 
S    1    1.000000
   1.54973000E+02    7.61269000E-02 
S    1    1.000000
   4.44553000E+01    2.60801000E-01 
S    1    1.000000
   1.30290000E+01    6.16462000E-01 
S    1    1.000000
   1.82773000E+00    2.21006000E-01 
SP   3    1.000000
   2.09642000E+01    1.14660000E-01   4.02487000E-02 
   4.80331000E+00    9.19999000E-01   2.37594000E-01 
   1.45933000E+00   -3.03068000E-03   8.15854000E-01 
SP   1    1.000000
   4.83456000E-01    1.00000000E+00   1.00000000E+00 
SP   1    1.000000
   1.45585000E-01    1.00000000E+00   1.00000000E+00 
SP   1    1.000000
   4.38000000E-02    1.00000000E+00   1.00000000E+00 
SP   1    1.000000
   1.31927711E-02    1.00000000E+00   1.00000000E+00 
D    1    1.000000
   6.26000000E-01    1.00000000E+00 

10    0
S    3    1.000000
   3.38650000E+01    2.54938000E-02 
   5.09479000E+00    1.90373000E-01 
   1.15879000E+00    8.52161000E-01 
S    1    1.000000
   3.25840000E-01    1.00000000E+00 
S    1    1.000000
   1.02741000E-01    1.00000000E+00 
S    1    1.000000
   3.60000000E-02    1.00000000E+00 
P    1    1.000000
   7.50000000E-01    1.00000000E+00 

11    0
S    1    1.000000
   4.56324000E+03    1.96665000E-03 
S    1    1.000000
   6.82024000E+02    1.52306000E-02 
S    1    1.000000
   1.54973000E+02    7.61269000E-02 
S    1    1.000000
   4.44553000E+01    2.60801000E-01 
S    1    1.000000
   1.30290000E+01    6.16462000E-01 
S    1    1.000000
   1.82773000E+00    2.21006000E-01 
SP   3    1.000000
   2.09642000E+01    1.14660000E-01   4.02487000E-02 
   4.80331000E+00    9.19999000E-01   2.37594000E-01 
   1.45933000E+00   -3.03068000E-03   8.15854000E-01 
SP   1    1.000000
   4.83456000E-01    1.00000000E+00   1.00000000E+00 
SP   1    1.000000
   1.45585000E-01    1.00000000E+00   1.00000000E+00 
SP   1    1.000000
   4.38000000E-02    1.00000000E+00   1.00000000E+00 
SP   1    1.000000
   1.31927711E-02    1.00000000E+00   1.00000000E+00 
D    1    1.000000
   6.26000000E-01    1.00000000E+00 

12    0
S    3    1.000000
   3.38650000E+01    2.54938000E-02 
   5.09479000E+00    1.90373000E-01 
   1.15879000E+00    8.52161000E-01 
S    1    1.000000
   3.25840000E-01    1.00000000E+00 
S    1    1.000000
   1.02741000E-01    1.00000000E+00 
S    1    1.000000
   3.60000000E-02    1.00000000E+00 
P    1    1.000000
   7.50000000E-01    1.00000000E+00 

[MO]
Sym=X
Ene= 1.999611
Spin=Alpha
Occup=1
     1   -1.165036051741e-01
     2   -1.714883909090e-01
     3   -5.917261669405e-03
     4    5.333646052359e-02
     5    2.026652490098e-02
     6   -5.762969043810e-10
     7    5.598474811508e-15
     8    1.125798790580e-04
     9    8.489273225704e-04
    10    4.517030073325e-03
    11    1.467503742122e-02
    12    3.671115754284e-02
    13    1.786770130911e-02
    14    9.672249447339e-02
    15   -7.449813674921e-02
    16   -1.142876189755e-08
    17    8.266027100230e-14
    18   -2.748763653986e-01
    19   -1.123652694656e-01
    20   -1.821825791399e-08
    21    1.439152379769e-13
    22   -1.856724353717e-01
    23   -7.978763014635e-02
    24   -6.441884722507e-09
    25    8.725968368568e-14
    26    3.028129431086e-01
    27   -1.399737427635e-01
    28    3.918231225599e-10
    29    5.084561329684e-14
    30    2.955114533330e-02
    31   -4.306358104820e-03
    32    6.192381178807e-09
    33    6.837928663110e-13
    34    1.019487436306e-02
    35   -1.661877159776e-14
    36   -1.037881054309e-15
    37   -8.118717169260e-03
    38    1.690445578268e-09
    39    1.600490958350e-05
    40    1.209645434076e-04
    41    6.394081368997e-04
    42    2.102144791940e-03
    43    5.399264556119e-03
    44    2.238743210539e-03
    45    1.206213476246e-02
    46   -1.256378345224e-02
    47    1.919377216381e-02
    48    8.540026724304e-14
    49   -3.204414883784e-02
    50   -1.867419655289e-02
    51    3.031304556395e-02
    52    1.453331795777e-13
    53    1.930728171501e-03
    54    7.304635393674e-03
    55    6.587847443750e-03
    56    1.099415227857e-13
    57   -1.465802010259e-01
    58    3.156096915065e-02
    59    6.063108338726e-02
    60   -2.141630883968e-14
    61   -1.359483995170e-02
    62   -3.323051162440e-04
    63    3.748718060851e-03
    64   -7.727430000092e-13
    65    1.914831609470e-03
    66   -1.301207853518e-14
    67   -1.038441065611e-14
    68   -2.380001920916e-03
    69    8.587382100831e-03
    70    5.884549802822e-03
    71    1.257167952438e-02
    72    4.881661196859e-03
    73   -3.461908664773e-02
    74    1.691372020673e-04
    75    8.308929124186e-04
    76    6.033607316791e-15
    77    1.600489064871e-05
    78    1.209644000480e-04
    79    6.394073805176e-04
    80    2.102142313520e-03
    81    5.399258425559e-03
    82    2.238740508515e-03
    83    1.206211930887e-02
    84    1.256377287667e-02
    85    1.919376747782e-02
    86    1.136682245505e-13
    87   -3.204410798193e-02
    88    1.867417977919e-02
    89    3.031303854289e-02
    90    1.974889615607e-13
    91    1.930762686396e-03
    92   -7.304637167052e-03
    93    6.587840298616e-03
    94    1.478211988717e-13
    95   -1.465802062495e-01
    96   -3.156095848414e-02
    97    6.063105980319e-02
    98    8.473239149920e-15
    99   -1.359483867267e-02
   100    3.323100177233e-04
   101    3.748721846216e-03
   102    7.942547186362e-13
   103    1.914830326763e-03
   104    4.385403569384e-15
   105   -1.952556650137e-14
   106   -2.380002876219e-03
   107   -8.587380028928e-03
   108    5.884558429244e-03
   109    1.257169100785e-02
   110    4.881663806720e-03
   111   -3.461903962656e-02
   112   -1.691366918462e-04
   113    8.308909134474e-04
   114    1.008592312615e-14
   115    1.125798791698e-04
   116    8.489273234371e-04
   117    4.517030077641e-03
   118    1.467503743606e-02
   119    3.671115757784e-02
   120    1.786770132180e-02
   121    9.672249451838e-02
   122    7.449813674604e-02
   123    1.145483731359e-08
   124    1.282023278798e-13
   125   -2.748763653873e-01
   126    1.123652694616e-01
   127    1.826497696835e-08
   128    2.167628723946e-13
   129   -1.856724353627e-01
   130    7.978763014403e-02
   131    6.431272679087e-09
   132    1.782288241384e-13
   133    3.028129445032e-01
   134    1.399737427891e-01
   135    1.176676837681e-09
   136   -9.024968938687e-15
   137    2.955114536973e-02
   138    4.306358095725e-03
   139   -6.153918550331e-09
   140   -7.590425876530e-13
   141    1.019487436278e-02
   142    2.158268586314e-14
   143   -2.874326643818e-15
   144   -8.118717168880e-03
   145    1.693054523441e-09
   146   -1.165036051698e-01
   147   -1.714883909006e-01
   148   -5.917261680500e-03
   149    5.333646055340e-02
   150   -2.026652489994e-02
   151    5.781963241028e-10
   152    9.776759375124e-15
   153    1.600490872895e-05
   154    1.209645367908e-04
   155    6.394081039371e-04
   156    2.102144678637e-03
   157    5.399264288863e-03
   158    2.238743113628e-03
   159    1.206213441253e-02
   160    1.256378347623e-02
   161   -1.919377216059e-02
   162    1.269685817096e-13
   163   -3.204414888420e-02
   164    1.867419658899e-02
   165   -3.031304555756e-02
   166    2.178005351703e-13
   167    1.930728127759e-03
   168   -7.304635373054e-03
   169   -6.587847458911e-03
   170    1.619622858022e-13
   171   -1.465801978580e-01
   172   -3.156096922949e-02
   173   -6.063108328061e-02
   174    5.785908943874e-14
   175   -1.359483985493e-02
   176    3.323051150318e-04
   177   -3.748718065994e-03
   178    6.812554096979e-13
   179    1.914831611426e-03
   180    5.431511959801e-15
   181    1.906261648175e-14
   182   -2.380001920297e-03
   183    8.587382101798e-03
   184    5.884549780294e-03
   185    1.257167949135e-02
   186    4.881661154947e-03
   187   -3.461908656736e-02
   188   -1.691372030161e-04
   189   -8.308929163980e-04
   190    1.061153159667e-14
   191    1.600488988770e-05
   192    1.209643941595e-04
   193    6.394073511810e-04
   194    2.102142212688e-03
   195    5.399258187737e-03
   196    2.238740422429e-03
   197    1.206211899903e-02
   198   -1.256377290116e-02
   199   -1.919376747546e-02
   200    9.662163706875e-14
   201   -3.204410803250e-02
   202   -1.867417981483e-02
   203   -3.031303853844e-02
   204    1.693141673769e-13
   205    1.930762647102e-03
   206    7.304637133262e-03
   207   -6.587840307297e-03
   208    1.398299275136e-13
   209   -1.465802044945e-01
   210    3.156095970048e-02
   211   -6.063105900912e-02
   212   -6.555672987176e-14
   213   -1.359483861051e-02
   214   -3.323099881823e-04
   215   -3.748721826950e-03
   216   -6.535585497863e-13
   217    1.914830328510e-03
   218   -1.402524189597e-14
   219    1.175122372168e-14
   220   -2.380002875308e-03
   221   -8.587380031143e-03
   222    5.884558407222e-03
   223    1.257169097302e-02
   224    4.881663803036e-03
   225   -3.461903953803e-02
   226    1.691366935446e-04
   227   -8.308909172753e-04
   228    6.941901985991e-15
Sym=X
Ene= 1.999576
Spin=Alpha
Occup=1
     1   -1.062895900170e-01
     2   -1.584283436905e-01
     3   -6.815821242078e-03
     4    3.080428303921e-02
     5    1.853432829265e-02
     6   -6.689761280493e-10
     7   -2.589925499362e-14
     8   -1.747986501913e-04
     9   -1.373920270390e-03
    10   -6.593394691237e-03
    11   -2.340459009295e-02
    12   -5.352413756848e-02
    13   -1.626963448585e-02
    14   -2.674505829679e-02
    15   -6.781682046240e-02
    16   -3.423005294671e-09
    17   -5.754797729292e-14
    18   -2.530686528523e-01
    19   -1.030441370446e-01
    20   -4.819556824294e-09
    21   -1.498200985773e-13
    22   -1.818611456983e-01
    23   -5.897467964468e-02
    24   -3.845194780070e-10
    25    1.587589846226e-13
    26   -8.974603160075e-02
    27   -5.246563450191e-02
    28    1.195538501345e-08
    29   -1.392407983310e-11
    30   -3.941491377641e-03
    31    5.178640121175e-03
    32   -1.075404580899e-09
    33    2.348652135275e-11
    34    9.655901742343e-03
    35   -1.912418188492e-14
    36   -5.787781720092e-16
    37   -8.091281671738e-03
    38   -3.800401340007e-10
    39    9.584433225337e-06
    40    7.109935958493e-05
    41    3.942526870465e-04
    42    1.250515373636e-03
    43    3.342955327616e-03
    44    1.287154103509e-03
    45    1.065935465065e-02
    46   -1.498273598127e-02
    47    1.508251510253e-02
    48    3.637684887824e-14
    49   -3.679258838293e-02
    50   -2.233181405821e-02
    51    2.360270816479e-02
    52    1.087509943725e-13
    53    1.710088628293e-02
    54   -8.268895041649e-03
    55   -4.845708217332e-07
    56   -1.787991202180e-13
    57   -4.619753423394e-02
    58    3.328856871527e-02
    59   -4.464716179897e-02
    60    1.392315809419e-11
    61   -2.279833942809e-03
    62   -2.424117500186e-03
    63    1.956047210843e-03
    64   -2.347528216730e-11
    65    2.843846245916e-03
    66    1.462876151544e-14
    67    1.993109938051e-14
    68   -2.459263055139e-03
    69    1.063618888851e-02
    70    6.141407805108e-04
    71    2.642054035092e-03
    72    1.270566315971e-02
    73    1.839634861228e-02
    74    4.659113706299e-04
    75    2.075757224974e-03
    76    2.412422672426e-14
    77   -9.584269364024e-06
    78   -7.109809122622e-05
    79   -3.942463574852e-04
    80   -1.250493650808e-03
    81   -3.342904011400e-03
    82   -1.287135469287e-03
    83   -1.065928542280e-02
    84   -1.498273165194e-02
    85   -1.508251003969e-02
    86   -9.832289394852e-14
    87    3.679258664451e-02
    88   -2.233180684268e-02
    89   -2.360269947421e-02
    90   -2.058462594687e-13
    91   -1.710089203047e-02
    92   -8.268890915647e-03
    93    4.909457908466e-07
    94    1.036414910842e-13
    95    4.619749807794e-02
    96    3.328858056035e-02
    97    4.464716353231e-02
    98   -1.392331808582e-11
    99    2.279832340650e-03
   100   -2.424118563628e-03
   101   -1.956046024357e-03
   102    2.346210398619e-11
   103   -2.843844995534e-03
   104    1.097137634739e-14
   105   -1.147854556831e-14
   106    2.459263356349e-03
   107    1.063618715799e-02
   108   -6.141390673587e-04
   109   -2.642052989280e-03
   110   -1.270566234529e-02
   111   -1.839634357842e-02
   112    4.659110176394e-04
   113   -2.075757015834e-03
   114   -2.672852004247e-14
   115    1.747986525483e-04
   116    1.373920288627e-03
   117    6.593394782219e-03
   118    2.340459040534e-02
   119    5.352413830634e-02
   120    1.626963475472e-02
   121    2.674505928233e-02
   122   -6.781682046377e-02
   123   -3.438764667316e-09
   124    1.203946231123e-14
   125    2.530686528701e-01
   126   -1.030441370449e-01
   127   -4.854847771560e-09
   128    6.527434792510e-14
   129    1.818611457144e-01
   130   -5.897467964212e-02
   131   -3.827038581739e-10
   132   -2.194428478930e-13
   133    8.974603096421e-02
   134   -5.246563463540e-02
   135    1.163366814059e-08
   136    1.391765124402e-11
   137    3.941491324691e-03
   138    5.178640104112e-03
   139   -1.054633436954e-09
   140   -2.347178400456e-11
   141   -9.655901743452e-03
   142   -2.734349263723e-14
   143    3.931465447379e-16
   144    8.091281670845e-03
   145    3.713431544006e-10
   146    1.062895900220e-01
   147    1.584283436965e-01
   148    6.815821256648e-03
   149   -3.080428306170e-02
   150    1.853432829437e-02
   151   -6.700494502658e-10
   152    2.218434755730e-14
   153   -9.584412972842e-06
   154   -7.109920278442e-05
   155   -3.942519049229e-04
   156   -1.250512688141e-03
   157   -3.342948984340e-03
   158   -1.287151787286e-03
   159   -1.065934616210e-02
   160   -1.498273599417e-02
   161    1.508251510013e-02
   162   -8.806120929176e-14
   163    3.679258844279e-02
   164   -2.233181408074e-02
   165    2.360270816482e-02
   166   -1.989562854907e-13
   167   -1.710088622957e-02
   168   -8.268895037268e-03
   169   -4.845675004960e-07
   170    1.181019316339e-13
   171    4.619753433089e-02
   172    3.328856891431e-02
   173   -4.464716187626e-02
   174   -1.393580530385e-11
   175    2.279833952164e-03
   176   -2.424117488153e-03
   177    1.956047183529e-03
   178    2.348642160352e-11
   179   -2.843846250272e-03
   180    1.375621863172e-14
   181    1.044084725099e-14
   182    2.459263050778e-03
   183   -1.063618889044e-02
   184   -6.141407620165e-04
   185   -2.642054015865e-03
   186   -1.270566315708e-02
   187   -1.839634861442e-02
   188    4.659113727018e-04
   189    2.075757231239e-03
   190   -2.808569866067e-14
   191    9.584251858744e-06
   192    7.109795570808e-05
   193    3.942456814791e-04
   194    1.250491329734e-03
   195    3.342898528755e-03
   196    1.287133466141e-03
   197    1.065927808478e-02
   198   -1.498273166037e-02
   199   -1.508251003622e-02
   200    4.773601189527e-14
   201   -3.679258668462e-02
   202   -2.233180686088e-02
   203   -2.360269946920e-02
   204    1.260270051737e-13
   205    1.710089197493e-02
   206   -8.268890904813e-03
   207    4.909386017183e-07
   208   -1.618496900457e-13
   209   -4.619749751692e-02
   210    3.328858078466e-02
   211    4.464716376618e-02
   212    1.392152215442e-11
   213   -2.279832296048e-03
   214   -2.424118572409e-03
   215   -1.956045990777e-03
   216   -2.348835802936e-11
   217    2.843844999093e-03
   218    1.496685783835e-14
   219   -1.760961680485e-14
   220   -2.459263352018e-03
   221   -1.063618715777e-02
   222    6.141390532035e-04
   223    2.642052978026e-03
   224    1.270566232174e-02
   225    1.839634358525e-02
   226    4.659110186856e-04
   227   -2.075757019991e-03
   228    2.364345678473e-14
Sym=X
Ene= 1.999542
Spin=Alpha
Occup=1
     1    4.288473924924e-02
     2    6.407977833880e-02
     3    2.749872038793e-03
     4   -1.209351671953e-02
     5   -7.257782438075e-03
     6    2.920088468374e-10
     7    1.204569400990e-14
     8   -7.734992210621e-04
     9   -5.979970536953e-03
    10   -2.993333201279e-02
    11   -1.024693537193e-01
    12   -2.427686207333e-01
    13   -9.002679772577e-02
    14   -3.427194919926e-01
    15    2.849570933420e-02
    16    1.378267505864e-09
    17    4.713593444508e-14
    18    9.879309937905e-02
    19    4.268604137327e-02
    20    2.317389073170e-09
    21    1.087504067774e-13
    22    7.072861991588e-02
    23    2.543193051563e-02
    24    2.109296780842e-11
    25   -3.332368019033e-14
    26    3.712302860898e-02
    27    2.095534667320e-02
    28   -5.002664057624e-09
    29    5.768206887244e-12
    30    1.589125791762e-03
    31   -2.040766366712e-03
    32    4.263205974513e-10
    33   -1.094422608295e-11
    34   -3.674627728688e-03
    35    5.838938835929e-15
    36   -2.402199215821e-16
    37    3.437087267140e-03
    38   -2.912454176486e-11
    39   -2.758124893813e-05
    40   -2.125222649182e-04
    41   -1.073789418077e-03
    42   -3.662480221680e-03
    43   -8.826897387049e-03
    44   -3.185996733443e-03
    45   -1.367485066443e-02
    46    5.586569705108e-03
    47   -5.686431417609e-03
    48   -2.412869352880e-15
    49    1.241753933823e-02
    50    7.867776291503e-03
    51   -8.602602218634e-03
    52   -3.160657070339e-14
    53   -7.340657804849e-03
    54    3.289446474176e-03
    55   -5.570590550531e-04
    56    1.044443481789e-13
    57    1.897078934183e-02
    58   -1.395615474028e-02
    59    1.787225912005e-02
    60   -5.773455962490e-12
    61    9.216393579213e-04
    62    9.361766695818e-04
    63   -6.985842832520e-04
    64    1.097142501362e-11
    65   -1.050055205827e-03
    66   -1.249462299374e-15
    67   -1.204454131535e-14
    68    1.446635277168e-03
    69   -3.967546458297e-03
    70   -6.437058141907e-04
    71   -1.571165133713e-03
    72   -4.911095615280e-03
    73   -7.154029728591e-03
    74   -2.026992560788e-04
    75   -6.970815147475e-04
    76   -9.437715586750e-15
    77    2.758162980963e-05
    78    2.125252135459e-04
    79    1.073804126183e-03
    80    3.662530723478e-03
    81    8.827016699746e-03
    82    3.186040377844e-03
    83    1.367501010969e-02
    84    5.586567978195e-03
    85    5.686429359228e-03
    86    1.519905096885e-14
    87   -1.241753786335e-02
    88    7.867773692273e-03
    89    8.602598721612e-03
    90    5.110552020894e-14
    91    7.340660449224e-03
    92    3.289444746537e-03
    93    5.570562912207e-04
    94   -8.703428795211e-14
    95   -1.897077407812e-02
    96   -1.395615968667e-02
    97   -1.787225992265e-02
    98    5.771093558769e-12
    99   -9.216386895507e-04
   100    9.361771060687e-04
   101    6.985838049266e-04
   102   -1.097056805171e-11
   103    1.050054640500e-03
   104   -1.988256511108e-15
   105    8.669680821485e-15
   106   -1.446635204786e-03
   107   -3.967545773936e-03
   108    6.437052726314e-04
   109    1.571164914122e-03
   110    4.911095314810e-03
   111    7.154027647478e-03
   112   -2.026990130385e-04
   113    6.970812928803e-04
   114    9.473281410773e-15
   115    7.734992269676e-04
   116    5.979970582654e-03
   117    2.993333224080e-02
   118    1.024693545021e-01
   119    2.427686225825e-01
   120    9.002679840021e-02
   121    3.427194944682e-01
   122    2.849570933267e-02
   123    1.372491494545e-09
   124   -3.497102796239e-14
   125   -9.879309936458e-02
   126    4.268604137529e-02
   127    2.290522071389e-09
   128   -8.070376845927e-14
   129   -7.072861991485e-02
   130    2.543193051290e-02
   131    3.443901905771e-11
   132    5.012394178246e-14
   133   -3.712302834746e-02
   134    2.095534672551e-02
   135   -4.891190861279e-09
   136   -5.759767668108e-12
   137   -1.589125770421e-03
   138   -2.040766361578e-03
   139    4.322410983675e-10
   140    1.093634136893e-11
   141    3.674627727707e-03
   142    7.865980422195e-15
   143   -7.952907937761e-16
   144   -3.437087268584e-03
   145    1.037610625354e-11
   146   -4.288473924565e-02
   147   -6.407977833291e-02
   148   -2.749872047428e-03
   149    1.209351672726e-02
   150   -7.257782435356e-03
   151    2.894990786543e-10
   152   -1.067621595055e-14
   153    2.758129970734e-05
   154    2.125226579639e-04
   155    1.073791378711e-03
   156    3.662486953388e-03
   157    8.826913288505e-03
   158    3.186002541708e-03
   159    1.367487196038e-02
   160    5.586569700806e-03
   161   -5.686431419628e-03
   162    1.785079023158e-14
   163   -1.241753928660e-02
   164    7.867776280953e-03
   165   -8.602602207762e-03
   166    5.660947348431e-14
   167    7.340657853248e-03
   168    3.289446492745e-03
   169   -5.570590346852e-04
   170   -7.459377279666e-14
   171   -1.897078946566e-02
   172   -1.395615483367e-02
   173    1.787225913856e-02
   174    5.746615675522e-12
   175   -9.216393681117e-04
   176    9.361766651413e-04
   177   -6.985842882784e-04
   178   -1.091511189826e-11
   179    1.050055199534e-03
   180   -1.647085744687e-15
   181   -9.100756245100e-15
   182   -1.446635285534e-03
   183    3.967546453106e-03
   184    6.437058268800e-04
   185    1.571165149087e-03
   186    4.911095616010e-03
   187    7.154029721239e-03
   188   -2.026992501422e-04
   189   -6.970815024566e-04
   190    9.366757864914e-15
   191   -2.758167372764e-05
   192   -2.125255535422e-04
   193   -1.073805822201e-03
   194   -3.662536546673e-03
   195   -8.827030455071e-03
   196   -3.186045404158e-03
   197   -1.367502853229e-02
   198    5.586567973044e-03
   199    5.686429362244e-03
   200   -1.348479471664e-15
   201    1.241753782891e-02
   202    7.867773677751e-03
   203    8.602598719647e-03
   204   -2.594598120906e-14
   205   -7.340660497777e-03
   206    3.289444762524e-03
   207    5.570562703782e-04
   208    9.894097557395e-14
   209    1.897077393677e-02
   210   -1.395615979127e-02
   211   -1.787226000414e-02
   212   -5.745618481435e-12
   213    9.216386772381e-04
   214    9.361771077020e-04
   215    6.985838068604e-04
   216    1.092272166911e-11
   217   -1.050054635593e-03
   218   -2.387421131554e-15
   219    1.152470471220e-14
   220    1.446635214466e-03
   221    3.967545772594e-03
   222   -6.437052836401e-04
   223   -1.571164927013e-03
   224   -4.911095312016e-03
   225   -7.154027640482e-03
   226   -2.026990087962e-04
   227    6.970812837078e-04
   228   -8.102969168947e-15
Sym=X
Ene= 1.999286
Spin=Alpha
Occup=1
     1   -1.415283311923e-03
     2   -2.184652736113e-03
     3    6.963403402682e-05
     4    8.482571576300e-04
     5    8.895751417373e-05
     6   -1.696860133570e-11
     7    4.800520074002e-16
     8    7.856991059947e-04
     9    6.082319003989e-03
    10    3.034486947615e-02
    11    1.041746961810e-01
    12    2.461132154344e-01
    13    8.995232828076e-02
    14    3.302462181675e-01
    15   -1.305391855012e-03
    16   -1.099348909672e-10
    17    4.461135137982e-15
    18   -2.933121873755e-03
    19   -1.440719915515e-03
    20   -3.947726710857e-10
    21   -1.181755371637e-15
    22   -1.937604929355e-03
    23   -1.608532456450e-03
    24    4.662459991073e-11
    25    1.224267477793e-14
    26    3.939974274377e-03
    27   -2.148002266312e-03
    28   -2.610157172744e-10
    29   -2.374173100938e-14
    30    3.959311600954e-04
    31    3.148176566111e-05
    32    1.706691086753e-10
    33   -2.169219920932e-13
    34    4.283460763668e-05
    35   -3.757812958002e-16
    36   -9.917221185788e-16
    37   -1.384445996800e-04
    38    1.103464906931e-10
    39   -1.853081429862e-05
    40   -1.437673488843e-04
    41   -7.145558342279e-04
    42   -2.470633543796e-03
    43   -5.830491669181e-03
    44   -2.139813056853e-03
    45   -7.370311016840e-03
    46    8.126847083471e-05
    47   -1.433513645447e-05
    48   -1.604713290674e-15
    49   -1.580021423316e-03
    50    1.589314501837e-04
    51   -2.899154187828e-04
    52    3.364376671646e-15
    53   -1.035627998784e-03
    54    1.809193762467e-04
    55    1.890439106804e-04
    56   -6.722094507408e-15
    57   -1.755101602574e-03
    58    5.936691566928e-04
    59    8.649133257101e-04
    60    1.108894682829e-14
    61   -1.904376170492e-04