[Molden Format]
[Atoms] (Angs)
  H      1    1      2.47503475      0.00000000     -0.00000000
  C      2    6      1.39359294      0.00000000     -0.00000000
  C      3    6      0.69679647      1.20688689      0.00000000
  H      4    1      1.23751738      2.14344297      0.00000000
  C      5    6     -0.69679647      1.20688689      0.00000000
  H      6    1     -1.23751738      2.14344297      0.00000000
  C      7    6     -1.39359294     -0.00000000      0.00000000
  H      8    1     -2.47503475     -0.00000000      0.00000000
  C      9    6     -0.69679647     -1.20688689     -0.00000000
  H     10    1     -1.23751738     -2.14344297     -0.00000000
  C     11    6      0.69679647     -1.20688689     -0.00000000
  H     12    1      1.23751738     -2.14344297     -0.00000000
[GTO]
1    0
S    3    1.000000
   3.38650000E+01    2.54938000E-02 
   5.09479000E+00    1.90373000E-01 
   1.15879000E+00    8.52161000E-01 
S    1    1.000000
   3.25840000E-01    1.00000000E+00 
S    1    1.000000
   1.02741000E-01    1.00000000E+00 
S    1    1.000000
   3.60000000E-02    1.00000000E+00 
P    1    1.000000
   7.50000000E-01    1.00000000E+00 

2    0
S    1    1.000000
   4.56324000E+03    1.96665000E-03 
S    1    1.000000
   6.82024000E+02    1.52306000E-02 
S    1    1.000000
   1.54973000E+02    7.61269000E-02 
S    1    1.000000
   4.44553000E+01    2.60801000E-01 
S    1    1.000000
   1.30290000E+01    6.16462000E-01 
S    1    1.000000
   1.82773000E+00    2.21006000E-01 
SP   3    1.000000
   2.09642000E+01    1.14660000E-01   4.02487000E-02 
   4.80331000E+00    9.19999000E-01   2.37594000E-01 
   1.45933000E+00   -3.03068000E-03   8.15854000E-01 
SP   1    1.000000
   4.83456000E-01    1.00000000E+00   1.00000000E+00 
SP   1    1.000000
   1.45585000E-01    1.00000000E+00   1.00000000E+00 
SP   1    1.000000
   4.38000000E-02    1.00000000E+00   1.00000000E+00 
SP   1    1.000000
   1.31927711E-02    1.00000000E+00   1.00000000E+00 
D    1    1.000000
   6.26000000E-01    1.00000000E+00 

3    0
S    1    1.000000
   4.56324000E+03    1.96665000E-03 
S    1    1.000000
   6.82024000E+02    1.52306000E-02 
S    1    1.000000
   1.54973000E+02    7.61269000E-02 
S    1    1.000000
   4.44553000E+01    2.60801000E-01 
S    1    1.000000
   1.30290000E+01    6.16462000E-01 
S    1    1.000000
   1.82773000E+00    2.21006000E-01 
SP   3    1.000000
   2.09642000E+01    1.14660000E-01   4.02487000E-02 
   4.80331000E+00    9.19999000E-01   2.37594000E-01 
   1.45933000E+00   -3.03068000E-03   8.15854000E-01 
SP   1    1.000000
   4.83456000E-01    1.00000000E+00   1.00000000E+00 
SP   1    1.000000
   1.45585000E-01    1.00000000E+00   1.00000000E+00 
SP   1    1.000000
   4.38000000E-02    1.00000000E+00   1.00000000E+00 
SP   1    1.000000
   1.31927711E-02    1.00000000E+00   1.00000000E+00 
D    1    1.000000
   6.26000000E-01    1.00000000E+00 

4    0
S    3    1.000000
   3.38650000E+01    2.54938000E-02 
   5.09479000E+00    1.90373000E-01 
   1.15879000E+00    8.52161000E-01 
S    1    1.000000
   3.25840000E-01    1.00000000E+00 
S    1    1.000000
   1.02741000E-01    1.00000000E+00 
S    1    1.000000
   3.60000000E-02    1.00000000E+00 
P    1    1.000000
   7.50000000E-01    1.00000000E+00 

5    0
S    1    1.000000
   4.56324000E+03    1.96665000E-03 
S    1    1.000000
   6.82024000E+02    1.52306000E-02 
S    1    1.000000
   1.54973000E+02    7.61269000E-02 
S    1    1.000000
   4.44553000E+01    2.60801000E-01 
S    1    1.000000
   1.30290000E+01    6.16462000E-01 
S    1    1.000000
   1.82773000E+00    2.21006000E-01 
SP   3    1.000000
   2.09642000E+01    1.14660000E-01   4.02487000E-02 
   4.80331000E+00    9.19999000E-01   2.37594000E-01 
   1.45933000E+00   -3.03068000E-03   8.15854000E-01 
SP   1    1.000000
   4.83456000E-01    1.00000000E+00   1.00000000E+00 
SP   1    1.000000
   1.45585000E-01    1.00000000E+00   1.00000000E+00 
SP   1    1.000000
   4.38000000E-02    1.00000000E+00   1.00000000E+00 
SP   1    1.000000
   1.31927711E-02    1.00000000E+00   1.00000000E+00 
D    1    1.000000
   6.26000000E-01    1.00000000E+00 

6    0
S    3    1.000000
   3.38650000E+01    2.54938000E-02 
   5.09479000E+00    1.90373000E-01 
   1.15879000E+00    8.52161000E-01 
S    1    1.000000
   3.25840000E-01    1.00000000E+00 
S    1    1.000000
   1.02741000E-01    1.00000000E+00 
S    1    1.000000
   3.60000000E-02    1.00000000E+00 
P    1    1.000000
   7.50000000E-01    1.00000000E+00 

7    0
S    1    1.000000
   4.56324000E+03    1.96665000E-03 
S    1    1.000000
   6.82024000E+02    1.52306000E-02 
S    1    1.000000
   1.54973000E+02    7.61269000E-02 
S    1    1.000000
   4.44553000E+01    2.60801000E-01 
S    1    1.000000
   1.30290000E+01    6.16462000E-01 
S    1    1.000000
   1.82773000E+00    2.21006000E-01 
SP   3    1.000000
   2.09642000E+01    1.14660000E-01   4.02487000E-02 
   4.80331000E+00    9.19999000E-01   2.37594000E-01 
   1.45933000E+00   -3.03068000E-03   8.15854000E-01 
SP   1    1.000000
   4.83456000E-01    1.00000000E+00   1.00000000E+00 
SP   1    1.000000
   1.45585000E-01    1.00000000E+00   1.00000000E+00 
SP   1    1.000000
   4.38000000E-02    1.00000000E+00   1.00000000E+00 
SP   1    1.000000
   1.31927711E-02    1.00000000E+00   1.00000000E+00 
D    1    1.000000
   6.26000000E-01    1.00000000E+00 

8    0
S    3    1.000000
   3.38650000E+01    2.54938000E-02 
   5.09479000E+00    1.90373000E-01 
   1.15879000E+00    8.52161000E-01 
S    1    1.000000
   3.25840000E-01    1.00000000E+00 
S    1    1.000000
   1.02741000E-01    1.00000000E+00 
S    1    1.000000
   3.60000000E-02    1.00000000E+00 
P    1    1.000000
   7.50000000E-01    1.00000000E+00 

9    0
S    1    1.000000
   4.56324000E+03    1.96665000E-03 
S    1    1.000000
   6.82024000E+02    1.52306000E-02 
S    1    1.000000
   1.54973000E+02    7.61269000E-02 
S    1    1.000000
   4.44553000E+01    2.60801000E-01 
S    1    1.000000
   1.30290000E+01    6.16462000E-01 
S    1    1.000000
   1.82773000E+00    2.21006000E-01 
SP   3    1.000000
   2.09642000E+01    1.14660000E-01   4.02487000E-02 
   4.80331000E+00    9.19999000E-01   2.37594000E-01 
   1.45933000E+00   -3.03068000E-03   8.15854000E-01 
SP   1    1.000000
   4.83456000E-01    1.00000000E+00   1.00000000E+00 
SP   1    1.000000
   1.45585000E-01    1.00000000E+00   1.00000000E+00 
SP   1    1.000000
   4.38000000E-02    1.00000000E+00   1.00000000E+00 
SP   1    1.000000
   1.31927711E-02    1.00000000E+00   1.00000000E+00 
D    1    1.000000
   6.26000000E-01    1.00000000E+00 

10    0
S    3    1.000000
   3.38650000E+01    2.54938000E-02 
   5.09479000E+00    1.90373000E-01 
   1.15879000E+00    8.52161000E-01 
S    1    1.000000
   3.25840000E-01    1.00000000E+00 
S    1    1.000000
   1.02741000E-01    1.00000000E+00 
S    1    1.000000
   3.60000000E-02    1.00000000E+00 
P    1    1.000000
   7.50000000E-01    1.00000000E+00 

11    0
S    1    1.000000
   4.56324000E+03    1.96665000E-03 
S    1    1.000000
   6.82024000E+02    1.52306000E-02 
S    1    1.000000
   1.54973000E+02    7.61269000E-02 
S    1    1.000000
   4.44553000E+01    2.60801000E-01 
S    1    1.000000
   1.30290000E+01    6.16462000E-01 
S    1    1.000000
   1.82773000E+00    2.21006000E-01 
SP   3    1.000000
   2.09642000E+01    1.14660000E-01   4.02487000E-02 
   4.80331000E+00    9.19999000E-01   2.37594000E-01 
   1.45933000E+00   -3.03068000E-03   8.15854000E-01 
SP   1    1.000000
   4.83456000E-01    1.00000000E+00   1.00000000E+00 
SP   1    1.000000
   1.45585000E-01    1.00000000E+00   1.00000000E+00 
SP   1    1.000000
   4.38000000E-02    1.00000000E+00   1.00000000E+00 
SP   1    1.000000
   1.31927711E-02    1.00000000E+00   1.00000000E+00 
D    1    1.000000
   6.26000000E-01    1.00000000E+00 

12    0
S    3    1.000000
   3.38650000E+01    2.54938000E-02 
   5.09479000E+00    1.90373000E-01 
   1.15879000E+00    8.52161000E-01 
S    1    1.000000
   3.25840000E-01    1.00000000E+00 
S    1    1.000000
   1.02741000E-01    1.00000000E+00 
S    1    1.000000
   3.60000000E-02    1.00000000E+00 
P    1    1.000000
   7.50000000E-01    1.00000000E+00 

[MO]
Sym=X
Ene= 1.997142
Spin=Alpha
Occup=1
     1   -9.898740070529e-02
     2   -1.438141298094e-01
     3   -1.773746446215e-04
     4    4.485389782823e-02
     5    1.819700165103e-02
     6   -4.828027519738e-10
     7    4.539876027206e-15
     8    1.301174220498e-04
     9    9.836448024763e-04
    10    5.208385389787e-03
    11    1.704018983467e-02
    12    4.255026449390e-02
    13    1.646830215941e-02
    14    1.080182927243e-01
    15   -5.299033730499e-02
    16   -9.635314837811e-09
    17    6.372803099986e-14
    18   -2.962460457133e-01
    19   -7.485026518818e-02
    20   -1.546731917901e-08
    21    1.125541809674e-13
    22   -1.782726772745e-01
    23   -5.788570181331e-02
    24   -5.323461576774e-09
    25    6.860964926378e-14
    26    2.293806033953e-01
    27   -1.125182611330e-01
    28   -4.058717498447e-10
    29    5.706669444067e-14
    30    2.268251580426e-02
    31   -1.390889518847e-03
    32    7.506349370385e-09
    33    8.152341660682e-13
    34    1.166776255679e-02
    35   -1.269639862501e-14
    36   -2.033718031821e-15
    37   -5.111703048682e-03
    38    1.538573480980e-09
    39    4.393016616300e-05
    40    3.326286617078e-04
    41    1.754072203396e-03
    42    5.775813064031e-03
    43    1.456859207717e-02
    44    5.103779003018e-03
    45    3.417776542340e-02
    46   -9.925723698622e-03
    47    2.363526522735e-02
    48    6.727263998771e-14
    49   -9.005733967940e-02
    50   -1.411175752168e-02
    51    3.724122791780e-02
    52    1.131571193223e-13
    53   -2.423271638990e-02
    54    4.007291859687e-03
    55    7.082720243742e-03
    56    8.538410775211e-14
    57   -1.149609102704e-01
    58    2.371842995488e-02
    59    4.408304603700e-02
    60   -2.731917894284e-14
    61   -1.063788317994e-02
    62   -1.178411245937e-03
    63    3.379272777505e-03
    64   -9.011686939841e-13
    65    4.662019799249e-03
    66   -9.887658065956e-15
    67   -7.875000152820e-15
    68   -1.481943547580e-03
    69    7.464633954387e-03
    70   -2.411410038733e-03
    71    4.419064132991e-04
    72    6.463629954634e-03
    73   -2.453123936031e-02
    74    8.419674394939e-04
    75    2.276824691948e-03
    76    4.450890650037e-15
    77    4.393012605287e-05
    78    3.326283539847e-04
    79    1.754070632177e-03
    80    5.775807769178e-03
    81    1.456857930651e-02
    82    5.103774020161e-03
    83    3.417774205292e-02
    84    9.925714665651e-03
    85    2.363526134398e-02
    86    8.928144052825e-14
    87   -9.005730352687e-02
    88    1.411174315853e-02
    89    3.724122225197e-02
    90    1.495429100849e-13
    91   -2.423268753891e-02
    92   -4.007294018992e-03
    93    7.082713374619e-03
    94    1.169870113321e-13
    95   -1.149609027544e-01
    96   -2.371841267899e-02
    97    4.408301748742e-02
    98    9.137377416778e-15
    99   -1.063788050406e-02
   100    1.178417250165e-03
   101    3.379277432216e-03
   102    9.100975235683e-13
   103    4.662018784971e-03
   104    3.756552698870e-15
   105   -1.403173862224e-14
   106   -1.481944554180e-03
   107   -7.464632314098e-03
   108   -2.411402296809e-03
   109    4.419172773980e-04
   110    6.463632373062e-03
   111   -2.453118286765e-02
   112   -8.419670270593e-04
   113    2.276822969020e-03
   114    8.264763551469e-15
   115    1.301174220733e-04
   116    9.836448026583e-04
   117    5.208385390689e-03
   118    1.704018983778e-02
   119    4.255026450116e-02
   120    1.646830216202e-02
   121    1.080182927326e-01
   122    5.299033730293e-02
   123    9.660059609273e-09
   124    9.529655968644e-14
   125   -2.962460457037e-01
   126    7.485026518630e-02
   127    1.551416683242e-08
   128    1.611767696872e-13
   129   -1.782726772666e-01
   130    5.788570181188e-02
   131    5.305353425225e-09
   132    1.347602588406e-13
   133    2.293806049995e-01
   134    1.125182611688e-01
   135    2.278670356465e-09
   136   -2.354496362141e-14
   137    2.268251584727e-02
   138    1.390889509354e-03
   139   -7.456224362929e-09
   140   -8.534558072831e-13
   141    1.166776255649e-02
   142    1.665243491979e-14
   143   -7.151488204289e-16
   144   -5.111703048228e-03
   145    1.542786346684e-09
   146   -9.898740070249e-02
   147   -1.438141298039e-01
   148   -1.773746559316e-04
   149    4.485389786859e-02
   150   -1.819700165007e-02
   151    4.859719041288e-10
   152    5.874616825314e-15
   153    4.393016592660e-05
   154    3.326286598760e-04
   155    1.754072194318e-03
   156    5.775813032723e-03
   157    1.456859200415e-02
   158    5.103778977349e-03
   159    3.417776533358e-02
   160    9.925723714995e-03
   161   -2.363526522496e-02
   162    9.521049502759e-14
   163   -9.005733973690e-02
   164    1.411175754568e-02
   165   -3.724122791083e-02
   166    1.659861966282e-13
   167   -2.423271643855e-02
   168   -4.007291846154e-03
   169   -7.082720267851e-03
   170    1.154150315469e-13
   171   -1.149609065094e-01
   172   -2.371843009261e-02
   173   -4.408304593076e-02
   174    7.502724845393e-14
   175   -1.063788306852e-02
   176    1.178411237168e-03
   177   -3.379272789211e-03
   178    7.720651133152e-13
   179    4.662019802566e-03
   180    3.025770043436e-15
   181    1.476815787411e-14
   182   -1.481943547054e-03
   183    7.464633952565e-03
   184   -2.411410059747e-03
   185    4.419063900564e-04
   186    6.463629888971e-03
   187   -2.453123930205e-02
   188   -8.419674409255e-04
   189   -2.276824694499e-03
   190    7.743365783581e-15
   191    4.393012588721e-05
   192    3.326283527030e-04
   193    1.754070625839e-03
   194    5.775807747298e-03
   195    1.456857925579e-02
   196    5.103774002780e-03
   197    3.417774199383e-02
   198   -9.925714682675e-03
   199   -2.363526134218e-02
   200    7.620616660410e-14
   201   -9.005730359116e-02
   202   -1.411174318218e-02
   203   -3.724122224674e-02
   204    1.254599784403e-13
   205   -2.423268758598e-02
   206    4.007293990505e-03
   207   -7.082713389905e-03
   208    1.121630902597e-13
   209   -1.149609006277e-01
   210    2.371841411577e-02
   211   -4.408301657176e-02
   212   -8.351281973929e-14
   213   -1.063788043448e-02
   214   -1.178417209580e-03
   215   -3.379277411774e-03
   216   -7.603853067387e-13
   217    4.662018788142e-03
   218   -1.237360457641e-14
   219    7.934113670765e-15
   220   -1.481944552876e-03
   221   -7.464632312965e-03
   222   -2.411402317952e-03
   223    4.419172513930e-04
   224    6.463632356319e-03
   225   -2.453118277601e-02
   226    8.419670291508e-04
   227   -2.276822971532e-03
   228    5.525581704146e-15
Sym=X
Ene= 1.997072
Spin=Alpha
Occup=1
     1   -1.054587910705e-01
     2   -1.555726858214e-01
     3   -2.152219236243e-03
     4    3.652205627651e-02
     5    1.916814229108e-02
     6   -7.792285450428e-10
     7   -4.642063682507e-14
     8    1.230325878455e-04
     9    9.301758765207e-04
    10    4.927315787573e-03
    11    1.611741546070e-02
    12    4.008309608996e-02
    13    1.431183326606e-02
    14    1.038451276910e-01
    15   -6.608683474983e-02
    16   -3.398498278927e-09
    17   -1.125094577245e-13
    18   -2.821463297101e-01
    19   -9.540628825414e-02
    20   -4.248264608561e-09
    21   -2.840779946132e-13
    22   -1.826196045362e-01
    23   -5.607174971785e-02
    24    4.367569533986e-10
    25    2.559552318036e-13
    26   -1.022680615027e-01
    27   -5.781880065278e-02
    28    4.882239622182e-08
    29   -2.467133245567e-11
    30   -4.775795794386e-03
    31    6.130723260587e-03
    32   -5.246371803535e-10
    33    4.288951112540e-11
    34    1.087545837281e-02
    35   -3.362689368568e-14
    36   -6.575866020227e-16
    37   -5.665506184985e-03
    38   -7.160808952589e-10
    39    3.371419856039e-05
    40    2.555538755603e-04
    41    1.346116280352e-03
    42    4.439120126919e-03
    43    1.109121597714e-02
    44    3.460675512705e-03
    45    2.677115571443e-02
    46   -2.234412739560e-02
    47    1.176223501105e-02
    48    6.622365064384e-14
    49   -6.893039059052e-02
    50   -3.329552244946e-02
    51    1.944485605517e-02
    52    2.002978148539e-13
    53   -8.349070214469e-03
    54   -1.094182240402e-02
    55   -2.294574194340e-03
    56   -3.196612880417e-13
    57   -5.188762170797e-02
    58    3.702247460065e-02
    59   -5.020676813604e-02
    60    2.467474233887e-11
    61   -2.622673123702e-03
    62   -2.885064215010e-03
    63    3.391656338092e-03
    64   -4.289338531826e-11
    65    3.795824043633e-03
    66    2.031209807437e-14
    67    3.620448169653e-14
    68   -2.739931589640e-04
    69    9.690896558583e-03
    70   -1.054471122181e-02
    71   -1.388727725689e-02
    72    1.101818598505e-02
    73    1.983790348658e-02
    74    1.194695115279e-03
    75    3.811499871902e-03
    76    4.295803389543e-14
    77   -3.371420680448e-05
    78   -2.555539393863e-04
    79   -1.346116598066e-03
    80   -4.439121222204e-03
    81   -1.109121862750e-02
    82   -3.460676908040e-03
    83   -2.677115863271e-02
    84   -2.234412159554e-02
    85   -1.176223100578e-02
    86   -1.305819745525e-13
    87    6.893039039917e-02
    88   -3.329551263641e-02
    89   -1.944484827271e-02
    90   -3.016242471811e-13
    91    8.349061246022e-03
    92   -1.094181671975e-02
    93    2.294580371512e-03
    94    2.403673560866e-13
    95    5.188746944215e-02
    96    3.702252070397e-02
    97    5.020678452416e-02
    98   -2.467651888010e-11
    99    2.622667953582e-03
   100   -2.885064925625e-03
   101   -3.391654820543e-03
   102    4.287722561367e-11
   103   -3.795822413749e-03
   104    1.804944317327e-14
   105   -2.700984571104e-14
   106    2.739937305910e-04
   107    9.690894416360e-03
   108    1.054471166772e-02
   109    1.388727584445e-02
   110   -1.101818254029e-02
   111   -1.983789532148e-02
   112    1.194694554433e-03
   113   -3.811499457558e-03
   114   -4.552239353273e-14
   115   -1.230325877863e-04
   116   -9.301758760659e-04
   117   -4.927315785306e-03
   118   -1.611741545291e-02
   119   -4.008309607162e-02
   120   -1.431183325954e-02
   121   -1.038451276678e-01
   122   -6.608683474957e-02
   123   -3.409654425543e-09
   124    6.452935640906e-14
   125    2.821463297180e-01
   126   -9.540628825345e-02
   127   -4.271831639654e-09
   128    1.940595997537e-13
   129    1.826196045494e-01
   130   -5.607174971456e-02
   131    4.498536979990e-10
   132   -3.233137940321e-13
   133    1.022680607519e-01
   134   -5.781880075821e-02
   135    4.854263510635e-08
   136    2.466963379152e-11
   137    4.775795735885e-03
   138    6.130723225899e-03
   139   -4.956325829833e-10
   140   -4.286885867336e-11
   141   -1.087545837334e-02
   142   -4.194731576471e-14
   143    2.519550884818e-16
   144    5.665506184627e-03
   145    7.149544255944e-10
   146    1.054587910719e-01
   147    1.555726858217e-01
   148    2.152219254485e-03
   149   -3.652205625890e-02
   150    1.916814229155e-02
   151   -7.790452411119e-10
   152    4.246974635977e-14
   153   -3.371419804697e-05
   154   -2.555538715804e-04
   155   -1.346116260532e-03
   156   -4.439120058778e-03
   157   -1.109121581660e-02
   158   -3.460675454491e-03
   159   -2.677115550504e-02
   160   -2.234412740481e-02
   161    1.176223500722e-02
   162   -1.197890179813e-13
   163    6.893039062778e-02
   164   -3.329552246280e-02
   165    1.944485604635e-02
   166   -2.936394518036e-13
   167    8.349070239171e-03
   168   -1.094182242883e-02
   169   -2.294574198929e-03
   170    2.510030548444e-13
   171    5.188762173199e-02
   172    3.702247469542e-02
   173   -5.020676824012e-02
   174   -2.467629317805e-11
   175    2.622673124000e-03
   176   -2.885064185790e-03
   177    3.391656299167e-03
   178    4.287001299326e-11
   179   -3.795824045372e-03
   180    2.072284346471e-14
   181    2.651257509368e-14
   182    2.739931580432e-04
   183   -9.690896557652e-03
   184    1.054471123501e-02
   185    1.388727726919e-02
   186   -1.101818599650e-02
   187   -1.983790354324e-02
   188    1.194695115469e-03
   189    3.811499873510e-03
   190   -4.712072032641e-14
   191    3.371420633297e-05
   192    2.555539357421e-04
   193    1.346116579878e-03
   194    4.439121159746e-03
   195    1.109121848009e-02
   196    3.460676853980e-03
   197    2.677115843932e-02
   198   -2.234412160208e-02
   199   -1.176223100147e-02
   200    7.852440766676e-14
   201   -6.893039042161e-02
   202   -3.329551264723e-02
   203   -1.944484826302e-02
   204    2.176199407194e-13
   205   -8.349061274634e-03
   206   -1.094181673875e-02
   207    2.294580374690e-03
   208   -2.955709915372e-13
   209   -5.188746867456e-02
   210    3.702252088610e-02
   211    5.020678477755e-02
   212    2.465797514863e-11
   213   -2.622667892293e-03
   214   -2.885064956880e-03
   215   -3.391654779082e-03
   216   -4.287665577547e-11
   217    3.795822415323e-03
   218    2.073299666041e-14
   219   -3.380515479976e-14
   220   -2.739937301153e-04
   221   -9.690894415510e-03
   222   -1.054471167720e-02
   223   -1.388727584932e-02
   224    1.101818252803e-02
   225    1.983789532236e-02
   226    1.194694554440e-03
   227   -3.811499458546e-03
   228    4.209359855873e-14
Sym=X
Ene= 1.995156
Spin=Alpha
Occup=1
     1    6.996458413179e-02
     2    1.068495416159e-01
     3    1.723858607176e-02
     4   -4.041205444303e-02
     5   -9.396277639547e-03
     6    5.971505039618e-10
     7   -5.916282831564e-15
     8    1.205663249377e-05
     9    9.258665328249e-05
    10    4.669625432037e-04
    11    1.590663010008e-03
    12    4.090590812961e-03
    13    3.186678406388e-03
    14    3.800127026365e-03
    15    8.705887856661e-02
    16    9.480296553967e-09
    17   -7.861328084432e-14
    18    1.003978088609e-04
    19    1.313790706842e-01
    20    1.475703709389e-08
    21   -1.369685078233e-13
    22    4.643937226520e-02
    23    7.308518554904e-02
    24   -2.121800301501e-09
    25   -9.075455655868e-14
    26   -2.423888414288e-01
    27    1.047725865706e-01
    28    1.845463075575e-08
    29   -4.093026218037e-14
    30   -2.321441247568e-02
    31    6.232031770339e-03
    32   -1.225922845257e-08
    33   -7.060684825971e-13
    34    2.306813268445e-03
    35    1.637044806325e-14
    36   -1.141632809332e-15
    37    1.276692184675e-02
    38   -1.249483160738e-09
    39    9.582101452637e-05
    40    7.247022545472e-04
    41    3.838742119338e-03
    42    1.260080478810e-02
    43    3.161007350558e-02
    44    8.924504468859e-03
    45    8.012747204082e-02
    46    9.111355982472e-03
    47   -3.929107894406e-03
    48   -7.539765838340e-14
    49   -2.217236295924e-01
    50    1.644603190288e-02
    51   -4.219302035131e-03
    52   -1.300832895006e-13
    53   -1.081211729971e-01
    54   -1.510127070423e-02
    55   -1.011511356415e-02
    56   -1.063960436381e-13
    57    1.115327530814e-01
    58   -3.025435350146e-02
    59   -5.621927542458e-02
    60   -3.740752423741e-15
    61    1.087359905620e-02
    62    1.596971248598e-04
    63   -1.726300407543e-03
    64    7.638006844547e-13
    65    9.953734562448e-03
    66    9.473739577746e-15
    67    1.161505129717e-14
    68    1.802329699275e-03
    69   -4.322000141913e-03
    70   -4.388541741158e-02
    71   -6.299973245099e-02
    72    3.631793274299e-03
    73    3.096815885898e-02
    74    3.972580425333e-03
    75    7.175475871186e-03
    76   -5.884653711350e-15
    77    9.582113044352e-05
    78    7.247031495285e-04
    79    3.838746613573e-03
    80    1.260082011595e-02
    81    3.161010978214e-02
    82    8.924518152914e-03
    83    8.012752655098e-02
    84   -9.111347641824e-03
    85   -3.929103039899e-03
    86   -9.251330424037e-14
    87   -2.217236571882e-01
    88   -1.644601979679e-02
    89   -4.219294644315e-03
    90   -1.740669953214e-13
    91   -1.081212181220e-01
    92    1.510127570598e-02
    93   -1.011509768595e-02
    94   -1.292984624943e-13
    95    1.115327849782e-01
    96    3.025431431138e-02
    97   -5.621928403700e-02
    98    2.471358288330e-14
    99    1.087360008910e-02
   100   -1.597047170951e-04
   101   -1.726313951777e-03
   102   -8.524468554256e-13
   103    9.953736054786e-03
   104   -4.308666200352e-15
   105    1.624904919612e-14
   106    1.802329863481e-03
   107    4.321997738943e-03
   108   -4.388542265199e-02
   109   -6.299973981152e-02
   110    3.631793967917e-03
   111    3.096810611903e-02
   112   -3.972580628239e-03
   113    7.175477374616e-03
   114   -7.784862279303e-15
   115    1.205663245304e-05
   116    9.258665296551e-05
   117    4.669625416163e-04
   118    1.590663004573e-03
   119    4.090590799963e-03
   120    3.186678401466e-03
   121    3.800127008296e-03
   122   -8.705887856583e-02
   123   -9.492180552550e-09
   124   -1.084266305752e-13
   125    1.003978148442e-04
   126   -1.313790706842e-01
   127   -1.477408176899e-08
   128   -1.829281570217e-13
   129    4.643937226263e-02
   130   -7.308518555189e-02
   131    2.149718642481e-09
   132   -1.496379827179e-13
   133   -2.423888442624e-01
   134   -1.047725866647e-01
   135   -2.169898654757e-08
   136   -3.419939236510e-14
   137   -2.321441255484e-02
   138   -6.232031758632e-03
   139    1.219133880922e-08
   140    8.863770245617e-13
   141    2.306813267877e-03
   142   -1.779971341958e-14
   143    3.777819070917e-15
   144    1.276692184684e-02
   145   -1.247205152724e-09
   146    6.996458413310e-02
   147    1.068495416135e-01
   148    1.723858608308e-02
   149   -4.041205454994e-02
   150    9.396277639400e-03
   151   -5.967339958967e-10
   152   -1.036041262700e-14
   153    9.582101496106e-05
   154    7.247022579099e-04
   155    3.838742136151e-03
   156    1.260080484574e-02
   157    3.161007364259e-02
   158    8.924504519879e-03
   159    8.012747222684e-02
   160   -9.111356011265e-03
   161    3.929107897221e-03
   162   -1.106944655052e-13
   163   -2.217236296251e-01
   164   -1.644603195680e-02
   165    4.219302031504e-03
   166   -1.821316064358e-13
   167   -1.081211729900e-01
   168    1.510127069569e-02
   169    1.011511360488e-02
   170   -1.575818878826e-13
   171    1.115327465381e-01
   172    3.025435373156e-02
   173    5.621927529288e-02
   174   -3.109612481140e-15
   175    1.087359886021e-02
   176   -1.596971219699e-04
   177    1.726300416697e-03
   178   -8.476843693792e-13
   179    9.953734562565e-03
   180   -9.084483758584e-15
   181   -1.656707760109e-14
   182    1.802329696444e-03
   183   -4.322000144143e-03
   184   -4.388541740379e-02
   185   -6.299973243794e-02
   186    3.631793385271e-03
   187    3.096815880308e-02
   188   -3.972580429033e-03
   189   -7.175475873388e-03
   190   -8.905899218111e-15
   191    9.582113066369e-05
   192    7.247031512250e-04
   193    3.838746622077e-03
   194    1.260082014507e-02
   195    3.161010985189e-02
   196    8.924518179082e-03
   197    8.012752664747e-02
   198    9.111347667906e-03
   199    3.929103041488e-03
   200   -8.470112183150e-14
   201   -2.217236572242e-01
   202    1.644601984295e-02
   203    4.219294638021e-03
   204   -1.617175637294e-13
   205   -1.081212181364e-01
   206   -1.510127566454e-02
   207    1.011509770544e-02
   208   -1.263507507712e-13
   209    1.115327813125e-01
   210   -3.025431687399e-02
   211    5.621928251791e-02
   212    2.879102974018e-14
   213    1.087359997052e-02
   214    1.597046573417e-04
   215    1.726313916412e-03
   216    7.549580897712e-13
   217    9.953736056043e-03
   218    7.908563446596e-15
   219   -1.286217509162e-14
   220    1.802329860401e-03
   221    4.321997740947e-03
   222   -4.388542264622e-02
   223   -6.299973979917e-02
   224    3.631794004487e-03
   225    3.096810606928e-02
   226    3.972580630803e-03
   227   -7.175477378360e-03
   228   -5.349850826400e-15
Sym=X
Ene= 1.994918
Spin=Alpha
Occup=1
     1    6.354851640670e-10
     2   -1.235464371376e-09
     3    1.315514508460e-09
     4    8.926434423923e-09
     5    2.394340265010e-10
     6   -1.417851339513e-03
     7    8.211424336548e-14
     8    1.704828085012e-12
     9    1.263792863442e-11
    10    6.880199816248e-11
    11    2.183365990871e-10
    12    6.292401201824e-10
    13    7.761913781917e-10
    14    1.198692853840e-09
    15    2.242821104327e-09
    16   -3.662239943741e-02
    17    1.664217423952e-13
    18   -6.108761325255e-09
    19    3.752565006607e-09
    20   -5.754147718717e-02
    21    4.364920164117e-13
    22    2.106007912717e-09
    23    4.388995915166e-09
    24   -1.466386119600e-02
    25   -4.857499154496e-13
    26    1.838110770770e-07
    27   -6.976830205781e-09
    28    6.806781437906e-02
    29    4.457663831081e-11
    30    5.972929491246e-09
    31   -3.397001974922e-09
    32   -4.593073734456e-03
    33   -7.889362690034e-11
    34   -1.188050643449e-09
    35    6.715078109512e-14
    36   -2.248647545960e-15
    37   -6.393667249928e-10
    38    6.620190537081e-03
    39    1.027129677819e-04
    40    7.782916319112e-04
    41    4.106999777648e-03
    42    1.352489901542e-02
    43    3.360772607832e-02
    44    8.228075553381e-03
    45    8.467597082481e-02
    46   -1.309348805950e-02
    47   -4.073953804466e-02
    48   -1.647047030237e-13
    49   -2.231697413900e-01
    50   -1.556804074190e-02
    51   -5.610998204220e-02
    52   -4.377534965796e-13
    53   -1.155425061438e-01
    54   -1.738561761655e-02
    55   -3.237568596330e-02
    56    4.658209299053e-13
    57   -9.133003221570e-02
    58   -5.293691363614e-02
    59   -2.496608469655e-02
    60   -4.447776111720e-11
    61   -4.192968138575e-03