[Molden Format]
[Atoms] (Angs)
  H      1    1      2.47503475      0.00000000     -0.00000000
  C      2    6      1.39359294      0.00000000     -0.00000000
  C      3    6      0.69679647      1.20688689      0.00000000
  H      4    1      1.23751738      2.14344297      0.00000000
  C      5    6     -0.69679647      1.20688689      0.00000000
  H      6    1     -1.23751738      2.14344297      0.00000000
  C      7    6     -1.39359294     -0.00000000      0.00000000
  H      8    1     -2.47503475     -0.00000000      0.00000000
  C      9    6     -0.69679647     -1.20688689     -0.00000000
  H     10    1     -1.23751738     -2.14344297     -0.00000000
  C     11    6      0.69679647     -1.20688689     -0.00000000
  H     12    1      1.23751738     -2.14344297     -0.00000000
[GTO]
1    0
S    3    1.000000
   3.38650000E+01    2.54938000E-02 
   5.09479000E+00    1.90373000E-01 
   1.15879000E+00    8.52161000E-01 
S    1    1.000000
   3.25840000E-01    1.00000000E+00 
S    1    1.000000
   1.02741000E-01    1.00000000E+00 
S    1    1.000000
   3.60000000E-02    1.00000000E+00 
P    1    1.000000
   7.50000000E-01    1.00000000E+00 

2    0
S    1    1.000000
   4.56324000E+03    1.96665000E-03 
S    1    1.000000
   6.82024000E+02    1.52306000E-02 
S    1    1.000000
   1.54973000E+02    7.61269000E-02 
S    1    1.000000
   4.44553000E+01    2.60801000E-01 
S    1    1.000000
   1.30290000E+01    6.16462000E-01 
S    1    1.000000
   1.82773000E+00    2.21006000E-01 
SP   3    1.000000
   2.09642000E+01    1.14660000E-01   4.02487000E-02 
   4.80331000E+00    9.19999000E-01   2.37594000E-01 
   1.45933000E+00   -3.03068000E-03   8.15854000E-01 
SP   1    1.000000
   4.83456000E-01    1.00000000E+00   1.00000000E+00 
SP   1    1.000000
   1.45585000E-01    1.00000000E+00   1.00000000E+00 
SP   1    1.000000
   4.38000000E-02    1.00000000E+00   1.00000000E+00 
SP   1    1.000000
   1.31927711E-02    1.00000000E+00   1.00000000E+00 
D    1    1.000000
   6.26000000E-01    1.00000000E+00 

3    0
S    1    1.000000
   4.56324000E+03    1.96665000E-03 
S    1    1.000000
   6.82024000E+02    1.52306000E-02 
S    1    1.000000
   1.54973000E+02    7.61269000E-02 
S    1    1.000000
   4.44553000E+01    2.60801000E-01 
S    1    1.000000
   1.30290000E+01    6.16462000E-01 
S    1    1.000000
   1.82773000E+00    2.21006000E-01 
SP   3    1.000000
   2.09642000E+01    1.14660000E-01   4.02487000E-02 
   4.80331000E+00    9.19999000E-01   2.37594000E-01 
   1.45933000E+00   -3.03068000E-03   8.15854000E-01 
SP   1    1.000000
   4.83456000E-01    1.00000000E+00   1.00000000E+00 
SP   1    1.000000
   1.45585000E-01    1.00000000E+00   1.00000000E+00 
SP   1    1.000000
   4.38000000E-02    1.00000000E+00   1.00000000E+00 
SP   1    1.000000
   1.31927711E-02    1.00000000E+00   1.00000000E+00 
D    1    1.000000
   6.26000000E-01    1.00000000E+00 

4    0
S    3    1.000000
   3.38650000E+01    2.54938000E-02 
   5.09479000E+00    1.90373000E-01 
   1.15879000E+00    8.52161000E-01 
S    1    1.000000
   3.25840000E-01    1.00000000E+00 
S    1    1.000000
   1.02741000E-01    1.00000000E+00 
S    1    1.000000
   3.60000000E-02    1.00000000E+00 
P    1    1.000000
   7.50000000E-01    1.00000000E+00 

5    0
S    1    1.000000
   4.56324000E+03    1.96665000E-03 
S    1    1.000000
   6.82024000E+02    1.52306000E-02 
S    1    1.000000
   1.54973000E+02    7.61269000E-02 
S    1    1.000000
   4.44553000E+01    2.60801000E-01 
S    1    1.000000
   1.30290000E+01    6.16462000E-01 
S    1    1.000000
   1.82773000E+00    2.21006000E-01 
SP   3    1.000000
   2.09642000E+01    1.14660000E-01   4.02487000E-02 
   4.80331000E+00    9.19999000E-01   2.37594000E-01 
   1.45933000E+00   -3.03068000E-03   8.15854000E-01 
SP   1    1.000000
   4.83456000E-01    1.00000000E+00   1.00000000E+00 
SP   1    1.000000
   1.45585000E-01    1.00000000E+00   1.00000000E+00 
SP   1    1.000000
   4.38000000E-02    1.00000000E+00   1.00000000E+00 
SP   1    1.000000
   1.31927711E-02    1.00000000E+00   1.00000000E+00 
D    1    1.000000
   6.26000000E-01    1.00000000E+00 

6    0
S    3    1.000000
   3.38650000E+01    2.54938000E-02 
   5.09479000E+00    1.90373000E-01 
   1.15879000E+00    8.52161000E-01 
S    1    1.000000
   3.25840000E-01    1.00000000E+00 
S    1    1.000000
   1.02741000E-01    1.00000000E+00 
S    1    1.000000
   3.60000000E-02    1.00000000E+00 
P    1    1.000000
   7.50000000E-01    1.00000000E+00 

7    0
S    1    1.000000
   4.56324000E+03    1.96665000E-03 
S    1    1.000000
   6.82024000E+02    1.52306000E-02 
S    1    1.000000
   1.54973000E+02    7.61269000E-02 
S    1    1.000000
   4.44553000E+01    2.60801000E-01 
S    1    1.000000
   1.30290000E+01    6.16462000E-01 
S    1    1.000000
   1.82773000E+00    2.21006000E-01 
SP   3    1.000000
   2.09642000E+01    1.14660000E-01   4.02487000E-02 
   4.80331000E+00    9.19999000E-01   2.37594000E-01 
   1.45933000E+00   -3.03068000E-03   8.15854000E-01 
SP   1    1.000000
   4.83456000E-01    1.00000000E+00   1.00000000E+00 
SP   1    1.000000
   1.45585000E-01    1.00000000E+00   1.00000000E+00 
SP   1    1.000000
   4.38000000E-02    1.00000000E+00   1.00000000E+00 
SP   1    1.000000
   1.31927711E-02    1.00000000E+00   1.00000000E+00 
D    1    1.000000
   6.26000000E-01    1.00000000E+00 

8    0
S    3    1.000000
   3.38650000E+01    2.54938000E-02 
   5.09479000E+00    1.90373000E-01 
   1.15879000E+00    8.52161000E-01 
S    1    1.000000
   3.25840000E-01    1.00000000E+00 
S    1    1.000000
   1.02741000E-01    1.00000000E+00 
S    1    1.000000
   3.60000000E-02    1.00000000E+00 
P    1    1.000000
   7.50000000E-01    1.00000000E+00 

9    0
S    1    1.000000
   4.56324000E+03    1.96665000E-03 
S    1    1.000000
   6.82024000E+02    1.52306000E-02 
S    1    1.000000
   1.54973000E+02    7.61269000E-02 
S    1    1.000000
   4.44553000E+01    2.60801000E-01 
S    1    1.000000
   1.30290000E+01    6.16462000E-01 
S    1    1.000000
   1.82773000E+00    2.21006000E-01 
SP   3    1.000000
   2.09642000E+01    1.14660000E-01   4.02487000E-02 
   4.80331000E+00    9.19999000E-01   2.37594000E-01 
   1.45933000E+00   -3.03068000E-03   8.15854000E-01 
SP   1    1.000000
   4.83456000E-01    1.00000000E+00   1.00000000E+00 
SP   1    1.000000
   1.45585000E-01    1.00000000E+00   1.00000000E+00 
SP   1    1.000000
   4.38000000E-02    1.00000000E+00   1.00000000E+00 
SP   1    1.000000
   1.31927711E-02    1.00000000E+00   1.00000000E+00 
D    1    1.000000
   6.26000000E-01    1.00000000E+00 

10    0
S    3    1.000000
   3.38650000E+01    2.54938000E-02 
   5.09479000E+00    1.90373000E-01 
   1.15879000E+00    8.52161000E-01 
S    1    1.000000
   3.25840000E-01    1.00000000E+00 
S    1    1.000000
   1.02741000E-01    1.00000000E+00 
S    1    1.000000
   3.60000000E-02    1.00000000E+00 
P    1    1.000000
   7.50000000E-01    1.00000000E+00 

11    0
S    1    1.000000
   4.56324000E+03    1.96665000E-03 
S    1    1.000000
   6.82024000E+02    1.52306000E-02 
S    1    1.000000
   1.54973000E+02    7.61269000E-02 
S    1    1.000000
   4.44553000E+01    2.60801000E-01 
S    1    1.000000
   1.30290000E+01    6.16462000E-01 
S    1    1.000000
   1.82773000E+00    2.21006000E-01 
SP   3    1.000000
   2.09642000E+01    1.14660000E-01   4.02487000E-02 
   4.80331000E+00    9.19999000E-01   2.37594000E-01 
   1.45933000E+00   -3.03068000E-03   8.15854000E-01 
SP   1    1.000000
   4.83456000E-01    1.00000000E+00   1.00000000E+00 
SP   1    1.000000
   1.45585000E-01    1.00000000E+00   1.00000000E+00 
SP   1    1.000000
   4.38000000E-02    1.00000000E+00   1.00000000E+00 
SP   1    1.000000
   1.31927711E-02    1.00000000E+00   1.00000000E+00 
D    1    1.000000
   6.26000000E-01    1.00000000E+00 

12    0
S    3    1.000000
   3.38650000E+01    2.54938000E-02 
   5.09479000E+00    1.90373000E-01 
   1.15879000E+00    8.52161000E-01 
S    1    1.000000
   3.25840000E-01    1.00000000E+00 
S    1    1.000000
   1.02741000E-01    1.00000000E+00 
S    1    1.000000
   3.60000000E-02    1.00000000E+00 
P    1    1.000000
   7.50000000E-01    1.00000000E+00 

[MO]
Sym=X
Ene= 1.999943
Spin=Alpha
Occup=1
     1    1.787229226498e-03
     2    2.551026136618e-03
     3    3.163384832581e-04
     4   -5.586944821936e-04
     5   -4.762812596976e-04
     6   -4.830658439293e-12
     7   -1.628799018864e-15
     8    7.821003034697e-04
     9    6.055097024829e-03
    10    3.020061640741e-02
    11    1.037027166270e-01
    12    2.449527137036e-01
    13    8.948067888049e-02
    14    3.271045471281e-01
    15    4.671266388548e-04
    16    9.533749353494e-11
    17   -2.721610410664e-14
    18    5.628258736807e-03
    19    1.327705588413e-03
    20   -4.411954156147e-11
    21   -5.294939767930e-14
    22    4.700227436052e-03
    23   -2.053857246024e-04
    24    9.855959920158e-11
    25   -4.045755306818e-14
    26    2.713568293298e-04
    27    7.519548005453e-04
    28   -4.702891740087e-11
    29    1.591794837875e-14
    30    3.437675361052e-05
    31   -7.497619482824e-05
    32    9.017559225539e-12
    33    1.098533469845e-12
    34   -2.933846672187e-04
    35    2.692478143165e-15
    36    5.814262303580e-16
    37    7.535306603407e-05
    38    5.342297797779e-11
    39    5.343577965421e-06
    40    4.143082703299e-05
    41    2.057133142392e-04
    42    7.106326198048e-04
    43    1.687758153868e-03
    44    5.997631527362e-04
    45    1.929901947649e-03
    46    3.731275742994e-04
    47   -4.373701852512e-04
    48   -1.454036857331e-14
    49    1.445094542424e-03
    50    9.502999681825e-04
    51   -9.549983744839e-04
    52   -1.673159871450e-14
    53   -7.093393845138e-04
    54    9.953611532266e-05
    55    5.608875653699e-04
    56   -3.104703507670e-14
    57    2.747708122464e-04
    58    4.298241662159e-05
    59    5.970400314456e-04
    60   -1.234990147360e-14
    61    2.129189962056e-05
    62    5.027474035394e-05
    63   -5.844833366701e-05
    64   -1.128535466314e-12
    65   -8.839811302509e-05
    66   -5.313184830819e-15
    67    4.280282772299e-15
    68   -2.528119375911e-04
    69   -4.361320151979e-04
    70    9.455057728178e-05
    71    6.766285950694e-05
    72   -3.849415837748e-04
    73   -4.237971341433e-04
    74    1.512089647966e-05
    75   -1.088034692109e-04
    76   -6.734658121173e-16
    77   -5.343688786744e-06
    78   -4.143168496988e-05
    79   -2.057175940465e-04
    80   -7.106473137675e-04
    81   -1.687792868660e-03
    82   -5.997758368821e-04
    83   -1.929948410880e-03
    84    3.731275181257e-04
    85    4.373701215515e-04
    86    2.805155028383e-14
    87   -1.445094709421e-03
    88    9.502998038207e-04
    89    9.549982261001e-04
    90    3.869118163885e-14
    91    7.093393263728e-04
    92    9.953610286242e-05
    93   -5.608875672925e-04
    94    4.608287961083e-14
    95   -2.747707434898e-04
    96    4.298235540950e-05
    97   -5.970399543296e-04
    98    1.497809940556e-14
    99   -2.129189882126e-05
   100    5.027472304849e-05
   101    5.844833159897e-05
   102    1.131995597511e-12
   103    8.839812747919e-05
   104   -2.948262785990e-15
   105   -4.573972883945e-15
   106    2.528118843085e-04
   107   -4.361319927720e-04
   108   -9.455063292730e-05
   109   -6.766292041761e-05
   110    3.849414996293e-04
   111    4.237970695993e-04
   112    1.512086902096e-05
   113    1.088034974703e-04
   114    1.782472727675e-15
   115   -7.821003100189e-04
   116   -6.055097075513e-03
   117   -3.020061666028e-02
   118   -1.037027174952e-01
   119   -2.449527157544e-01
   120   -8.948067962855e-02
   121   -3.271045498740e-01
   122    4.671266388552e-04
   123    1.069725741677e-10
   124    3.371756929615e-14
   125   -5.628258750246e-03
   126    1.327705583850e-03
   127   -4.855430536809e-12
   128    5.973386147186e-14
   129   -4.700227438913e-03
   130   -2.053857253119e-04
   131    8.525131631289e-11
   132    4.872824801256e-14
   133   -2.713568235165e-04
   134    7.519548024124e-04
   135   -1.824526022322e-11
   136   -2.141950838816e-14
   137   -3.437675284365e-05
   138   -7.497619322047e-05
   139   -4.428058829058e-12
   140   -1.095539162024e-12
   141    2.933846683238e-04
   142    3.991646500448e-15
   143    7.098381879451e-16
   144   -7.535306418459e-05
   145   -3.229055486134e-11
   146   -1.787229228810e-03
   147   -2.551026139994e-03
   148   -3.163384810317e-04
   149    5.586944828437e-04
   150   -4.762812623761e-04
   151   -2.027685867709e-12
   152    1.823489696370e-15
   153   -5.343633605626e-06
   154   -4.143125779120e-05
   155   -2.057154629829e-04
   156   -7.106399974175e-04
   157   -1.687775580943e-03
   158   -5.997695179979e-04
   159   -1.929925284310e-03
   160    3.731275831730e-04
   161   -4.373701819431e-04
   162    2.021084864509e-14
   163   -1.445094613434e-03
   164    9.502999867589e-04
   165   -9.549983838841e-04
   166    2.875203597775e-14
   167    7.093393180123e-04
   168    9.953609638806e-05
   169    5.608875450341e-04
   170    2.709371238586e-14
   171   -2.747707331995e-04
   172    4.298242103577e-05
   173    5.970400483344e-04
   174    4.226329825989e-14
   175   -2.129189364683e-05
   176    5.027473992106e-05
   177   -5.844831825489e-05
   178    1.069958804497e-12
   179    8.839812059613e-05
   180   -4.519692900404e-15
   181    5.281271487657e-15
   182    2.528119473775e-04
   183    4.361320206036e-04
   184   -9.455059662515e-05
   185   -6.766288181997e-05
   186    3.849415818516e-04
   187    4.237971424358e-04
   188    1.512089011663e-05
   189   -1.088034831591e-04
   190    2.305171172054e-15
   191    5.343737453814e-06
   192    4.143206172503e-05
   193    2.057194734324e-04
   194    7.106537665610e-04
   195    1.687808111145e-03
   196    5.997814064564e-04
   197    1.929968823173e-03
   198    3.731275265748e-04
   199    4.373701177658e-04
   200   -2.121199406284e-14
   201    1.445094759038e-03
   202    9.502998249334e-04
   203    9.549982267662e-04
   204   -3.088506088999e-14
   205   -7.093392586915e-04
   206    9.953608334465e-05
   207   -5.608875445768e-04
   208   -3.427512721451e-14
   209    2.747706536222e-04
   210    4.298235892103e-05
   211   -5.970399729217e-04
   212   -3.787514687396e-14
   213    2.129189269995e-05
   214    5.027472462196e-05
   215    5.844831668639e-05
   216   -1.076960999134e-12
   217   -8.839813361032e-05
   218   -4.158887346397e-15
   219   -4.788722197978e-15
   220   -2.528118949953e-04
   221    4.361319941881e-04
   222    9.455064886219e-05
   223    6.766293683818e-05
   224   -3.849414929688e-04
   225   -4.237970781261e-04
   226    1.512086452182e-05
   227    1.088035078676e-04
   228   -1.826206148988e-15
Sym=X
Ene= 1.999902
Spin=Alpha
Occup=1
     1   -2.232408248107e-03
     2   -3.145424274709e-03
     3   -1.263683039880e-04
     4    6.663283958356e-04
     5    5.743128876790e-04
     6   -1.323393536504e-11
     7   -2.952139064665e-16
     8   -7.813124431727e-04
     9   -6.049193216604e-03
    10   -3.016917081232e-02
    11   -1.036011546506e-01
    12   -2.446791607764e-01
    13   -8.925450108118e-02
    14   -3.265904072742e-01
    15   -6.466226851721e-04
    16   -2.604323436224e-10
    17   -1.651737972815e-15
    18   -7.263329691049e-03
    19   -1.453574485038e-03
    20   -3.073283944652e-10
    21    6.018637416656e-15
    22   -4.408428619362e-03
    23   -6.785608027162e-04
    24   -1.916458108827e-10
    25   -9.137383930635e-15
    26    4.192917709058e-03
    27   -1.771866548309e-03
    28    2.388085745760e-10
    29    2.595408810755e-14
    30    4.011633083830e-04
    31   -1.320854772305e-04
    32    2.699955019559e-11
    33    2.268111459160e-13
    34    3.546530986104e-04
    35   -9.094895867117e-17
    36    1.069225652406e-15
    37   -4.336778519475e-05
    38    4.739310206697e-11
    39   -9.652419976840e-06
    40   -7.494705484364e-05
    41   -3.714871493885e-04
    42   -1.286380757470e-03
    43   -3.025273786537e-03
    44   -9.896221874476e-04
    45   -3.618832754556e-03
    46   -3.046492127558e-04
    47    5.870924748463e-04
    48    4.657943909788e-15
    49   -2.471536871341e-03
    50   -4.724480314141e-04
    51    1.237224367897e-03
    52    1.905202805891e-15
    53   -2.169383392890e-04
    54    2.116027656355e-05
    55   -1.083288598091e-04
    56    1.069591268383e-14
    57   -2.277582446312e-03
    58    2.147216121839e-04
    59    6.979306071524e-04
    60   -1.226483357156e-14
    61   -1.829481262296e-04
    62    6.752357760586e-05
    63    4.327341704555e-05
    64   -2.595278472216e-13
    65    1.285665140129e-04
    66   -9.485216129542e-16
    67    3.116404450925e-16
    68    7.520294823254e-05
    69    3.604250367981e-04
    70   -1.182481982929e-04
    71   -1.486598949067e-04
    72    3.535337400946e-04
    73   -3.211502025469e-04
    74    3.263302427821e-05
    75    1.278403354418e-04
    76    1.818784792148e-16
    77   -9.652228334198e-06
    78   -7.494557110919e-05
    79   -3.714797489022e-04
    80   -1.286355344939e-03
    81   -3.025213764490e-03
    82   -9.896002737051e-04
    83   -3.618752511920e-03
    84    3.046490080209e-04
    85    5.870924232926e-04
    86    3.381096346954e-15
    87   -2.471535904275e-03
    88    4.724476564954e-04
    89    1.237224209817e-03
    90    5.997462040365e-15
    91   -2.169376473223e-04
    92   -2.116022269231e-05
    93   -1.083289501952e-04
    94    8.120845273791e-15
    95   -2.277583477653e-03
    96   -2.147221193949e-04
    97    6.979305895493e-04
    98   -7.003051585064e-15
    99   -1.829482092742e-04
   100   -6.752355360603e-05
   101    4.327341013362e-05
   102    2.953331774984e-13
   103    1.285664618595e-04
   104    2.138636486082e-16
   105   -1.006265210486e-15
   106    7.520288984770e-05
   107   -3.604249833001e-04
   108   -1.182479686607e-04
   109   -1.486595818091e-04
   110    3.535336986558e-04
   111   -3.211499846623e-04
   112   -3.263298696715e-05
   113    1.278402503706e-04
   114    3.856127426256e-16
   115   -7.813124364845e-04
   116   -6.049193164822e-03
   117   -3.016917055403e-02
   118   -1.036011537638e-01
   119   -2.446791586814e-01
   120   -8.925450031582e-02
   121   -3.265904044689e-01
   122    6.466226844005e-04
   123    2.685900135045e-10
   124    2.059812860078e-15
   125   -7.263329684649e-03
   126    1.453574485530e-03
   127    3.789816094229e-10
   128    2.264918794891e-15
   129   -4.408428597941e-03
   130    6.785608143765e-04
   131    1.445641352694e-10
   132    2.835464192567e-15
   133    4.192917709416e-03
   134    1.771866550262e-03
   135   -1.801093332444e-10
   136    1.003734454518e-15
   137    4.011633082573e-04
   138    1.320854767203e-04
   139   -3.208965709724e-11
   140   -2.878030352948e-13
   141    3.546530977463e-04
   142   -7.677443322352e-17
   143   -1.234215382819e-15
   144   -4.336778486080e-05
   145    8.791570271964e-11
   146   -2.232408246304e-03
   147   -3.145424271669e-03
   148   -1.263683013584e-04
   149    6.663283969364e-04
   150   -5.743128858720e-04
   151    1.951768275979e-11
   152    3.026724439340e-16
   153   -9.652478275073e-06
   154   -7.494750616081e-05
   155   -3.714894007665e-04
   156   -1.286388487121e-03
   157   -3.025292047733e-03
   158   -9.896288593222e-04
   159   -3.618857196111e-03
   160    3.046492103771e-04
   161   -5.870924716544e-04
   162    1.608825745549e-16
   163   -2.471536965075e-03
   164    4.724479920394e-04
   165   -1.237224361440e-03
   166    7.097819943865e-16
   167   -2.169384185324e-04
   168   -2.116026626013e-05
   169    1.083288267465e-04
   170   -4.411938403370e-15
   171   -2.277582362929e-03
   172   -2.147216321262e-04
   173   -6.979305839020e-04
   174    1.471323062256e-14
   175   -1.829481220264e-04
   176   -6.752357202284e-05
   177   -4.327341313942e-05
   178    2.522578583188e-13
   179    1.285665236300e-04
   180   -1.199683647726e-15
   181    6.288349986178e-16
   182    7.520292441354e-05
   183    3.604250349348e-04
   184   -1.182482203928e-04
   185   -1.486599226797e-04
   186    3.535337439258e-04
   187   -3.211501903454e-04
   188   -3.263303737872e-05
   189   -1.278403515120e-04
   190   -1.193513857355e-16
   191   -9.652280800177e-06
   192   -7.494597728610e-05
   193   -3.714817751087e-04
   194   -1.286362301447e-03
   195   -3.025230199664e-03
   196   -9.896062784800e-04
   197   -3.618774506754e-03
   198   -3.046490049677e-04
   199   -5.870924218894e-04
   200   -1.701835314480e-15
   201   -2.471535995210e-03
   202   -4.724476202432e-04
   203   -1.237224207075e-03
   204   -1.906477944857e-15
   205   -2.169376900985e-04
   206    2.116020451135e-05
   207    1.083289369660e-04
   208    6.238484229071e-15
   209   -2.277583398230e-03
   210    2.147221384639e-04
   211   -6.979305628687e-04
   212   -2.415233194460e-14
   213   -1.829482049515e-04
   214    6.752354850905e-05
   215   -4.327340576575e-05
   216   -2.246701687800e-13
   217    1.285664709018e-04
   218   -6.982252954431e-16
   219    1.365763241117e-16
   220    7.520286728602e-05
   221   -3.604249847062e-04
   222   -1.182479892491e-04
   223   -1.486596058985e-04
   224    3.535337084551e-04
   225   -3.211499705417e-04
   226    3.263299920227e-05
   227   -1.278402657636e-04
   228   -6.302306827122e-18
Sym=X
Ene= 1.999631
Spin=Alpha
Occup=1
     1    1.191678204336e-01
     2    1.754523150366e-01
     3    7.292591602612e-03
     4   -5.265371416836e-02
     5   -2.041357915710e-02
     6    5.703910144706e-10
     7   -5.814171719965e-15
     8   -1.365389482860e-04
     9   -1.034997463914e-03
    10   -5.437948083193e-03
    11   -1.785817808969e-02
    12   -4.415852053657e-02
    13   -2.039010834127e-02
    14   -1.056136129165e-01
    15    7.915192539753e-02
    16    1.126630003247e-08
    17   -8.578231242884e-14
    18    2.676840594677e-01
    19    1.197302740926e-01
    20    1.792771710155e-08
    21   -1.489519096103e-13
    22    1.844186253770e-01
    23    8.416869298215e-02
    24    5.926028282827e-09
    25   -9.076529452311e-14
    26   -2.891754513896e-01
    27    1.363578252315e-01
    28    1.984489873664e-09
    29   -4.879933052577e-14
    30   -2.837899382581e-02
    31    4.435642624562e-03
    32   -6.105118923080e-09
    33   -6.320512582155e-13
    34   -9.683138626165e-03
    35    1.750163832454e-14
    36    1.258971386492e-15
    37    8.820995740531e-03
    38   -1.658006602354e-09
    39   -1.499315770268e-05
    40   -1.133065740981e-04
    41   -5.989551313401e-04
    42   -1.969054807876e-03
    43   -5.064607317862e-03
    44   -2.122458646949e-03
    45   -1.124843440573e-02
    46    1.070195719372e-02
    47   -1.560420936923e-02
    48   -8.938979424268e-14
    49    3.001578720924e-02
    50    1.605937787911e-02
    51   -2.535687418993e-02
    52   -1.526947834560e-13
    53   -2.953963748366e-03
    54   -9.590059208930e-03
    55   -4.633154725389e-03
    56   -1.140192408111e-13
    57    1.403426610239e-01
    58   -3.098571358566e-02
    59   -5.882481674200e-02
    60    2.109274112452e-14
    61    1.304700032358e-02
    62   -6.904799261674e-05
    63   -3.671470826698e-03
    64    7.204813804064e-13
    65   -1.689106187570e-03
    66    1.387014800627e-14
    67    1.107970718382e-14
    68    3.029058725775e-03
    69   -8.678069336653e-03
    70   -5.059568753076e-03
    71   -1.112734653838e-02
    72   -5.193065524577e-03
    73    3.412970993397e-02
    74   -4.311231879300e-04
    75   -9.649335287617e-04
    76   -6.325022506960e-15
    77   -1.499313847530e-05
    78   -1.133064284054e-04
    79   -5.989543642074e-04
    80   -1.969052290105e-03
    81   -5.064601100083e-03
    82   -2.122455917602e-03
    83   -1.124841899569e-02
    84   -1.070194686684e-02
    85   -1.560420459983e-02
    86   -1.223671562509e-13
    87    3.001574721757e-02
    88   -1.605936154593e-02
    89   -2.535686704781e-02
    90   -2.109520923513e-13
    91   -2.953997421781e-03
    92    9.590061944792e-03
    93   -4.633146967451e-03
    94   -1.598060869161e-13
    95    1.403426709635e-01
    96    3.098570012908e-02
    97   -5.882479697522e-02
    98   -7.819165256130e-15
    99    1.304699948453e-02
   100    6.904309927014e-05
   101   -3.671474705768e-03
   102   -7.437800745081e-13
   103   -1.689104933813e-03
   104   -4.351071767753e-15
   105    2.101279830810e-14
   106    3.029059640739e-03
   107    8.678067267606e-03
   108   -5.059577013127e-03
   109   -1.112735748909e-02
   110   -5.193067810130e-03
   111    3.412966392678e-02
   112    4.311227013799e-04
   113   -9.649315890025e-04
   114   -1.063862045855e-14
   115   -1.365389481545e-04
   116   -1.034997462896e-03
   117   -5.437948078113e-03
   118   -1.785817807225e-02
   119   -4.415852049537e-02
   120   -2.039010832621e-02
   121   -1.056136128607e-01
   122   -7.915192539616e-02
   123   -1.129177884686e-08
   124   -1.387949273517e-13
   125    2.676840594637e-01
   126   -1.197302740912e-01
   127   -1.797084401338e-08
   128   -2.352776349279e-13
   129    1.844186253739e-01
   130   -8.416869298145e-02
   131   -5.918190700219e-09
   132   -1.929282511580e-13
   133   -2.891754527527e-01
   134   -1.363578252484e-01
   135   -3.506929406471e-09
   136    6.412744810212e-15
   137   -2.837899386162e-02
   138   -4.435642613234e-03
   139    6.066617441604e-09
   140    7.101668410701e-13
   141   -9.683138626181e-03
   142   -2.319839556909e-14
   143    2.936280585606e-15
   144    8.820995740374e-03
   145   -1.658825547803e-09
   146    1.191678204322e-01
   147    1.754523150324e-01
   148    7.292591614672e-03
   149   -5.265371418579e-02
   150    2.041357915664e-02
   151   -5.719961431639e-10
   152   -1.054200796086e-14
   153   -1.499315883821e-05
   154   -1.133065828877e-04
   155   -5.989551752290e-04
   156   -1.969054958433e-03
   157   -5.064607673946e-03
   158   -2.122458777703e-03
   159   -1.124843488990e-02
   160   -1.070195721947e-02
   161    1.560420936574e-02
   162   -1.366424004842e-13
   163    3.001578725074e-02
   164   -1.605937791965e-02
   165    2.535687418295e-02
   166   -2.338052316784e-13
   167   -2.953963710676e-03
   168    9.590059188391e-03
   169    4.633154738977e-03
   170   -1.766338771068e-13
   171    1.403426579481e-01
   172    3.098571365847e-02
   173    5.882481663763e-02
   174   -5.593889405609e-14
   175    1.304700023011e-02
   176    6.904799370159e-05
   177    3.671470830316e-03
   178   -6.338967366285e-13
   179   -1.689106189289e-03
   180   -5.755899962506e-15
   181   -2.033618728887e-14
   182    3.029058724079e-03
   183   -8.678069337887e-03
   184   -5.059568730682e-03
   185   -1.112734650544e-02
   186   -5.193065481051e-03
   187    3.412970984948e-02
   188    4.311231884253e-04
   189    9.649335321959e-04
   190   -1.136894702042e-14
   191   -1.499313949534e-05
   192   -1.133064363051e-04
   193   -5.989544036503e-04
   194   -1.969052425420e-03
   195   -5.064601420130e-03
   196   -2.122456035257e-03
   197   -1.124841943189e-02
   198    1.070194689235e-02
   199    1.560420459620e-02
   200   -1.020795697672e-13
   201    3.001574726140e-02
   202    1.605936158475e-02
   203    2.535686704114e-02
   204   -1.786676260605e-13
   205   -2.953997386189e-03
   206   -9.590061911316e-03
   207    4.633146974619e-03
   208   -1.458417529989e-13
   209    1.403426692597e-01
   210   -3.098570131876e-02
   211    5.882479621468e-02
   212    6.372869244982e-14
   213    1.304699942448e-02
   214   -6.904313040078e-05
   215    3.671474689959e-03
   216    6.035638729529e-13
   217   -1.689104935212e-03
   218    1.505068287865e-14
   219   -1.222547062388e-14
   220    3.029059638682e-03
   221    8.678067269328e-03
   222   -5.059576991100e-03
   223   -1.112735745448e-02
   224   -5.193067801949e-03
   225    3.412966385588e-02
   226   -4.311227026023e-04
   227    9.649315922071e-04
   228   -7.363890596175e-15
Sym=X
Ene= 1.999597
Spin=Alpha
Occup=1
     1    1.172685117608e-01
     2    1.747821887457e-01
     3    8.465176833789e-03
     4   -3.380406672828e-02
     5   -2.003960192493e-02
     6    7.216123083111e-10
     7    2.644139138903e-14
     8   -1.338486672130e-04
     9   -1.014499012971e-03
    10   -5.333868913512e-03
    11   -1.750816197177e-02
    12   -4.319488548864e-02
    13   -1.917485022505e-02
    14   -1.050993610913e-01
    15    7.800535410698e-02
    16    3.833270215577e-09
    17    6.529144108259e-14
    18    2.650682472236e-01
    19    1.186618674613e-01
    20    5.612649208614e-09
    21    1.657492397759e-13
    22    1.949371887885e-01
    23    6.825275164615e-02
    24    6.234057993912e-10
    25   -1.500341629112e-13
    26    9.907788128028e-02
    27    5.662114142339e-02
    28   -1.948630011701e-08
    29    1.398040468084e-11
    30    4.341197184270e-03
    31   -5.763323094934e-03
    32    1.022626264283e-09
    33   -2.398129194393e-11
    34   -9.936777566870e-03
    35    1.855022442065e-14
    36    6.924011088627e-16
    37    9.495623080831e-03
    38    2.922619614407e-10
    39   -1.642209394939e-05
    40   -1.243775241473e-04
    41   -6.557436509557e-04
    42   -2.163701667688e-03
    43   -5.489932969908e-03
    44   -2.173032110901e-03
    45   -1.262839801569e-02
    46    1.470334877132e-02
    47   -1.419816427912e-02
    48   -2.972151510719e-14
    49    3.226019141490e-02
    50    2.178823793219e-02
    51   -2.232210760726e-02
    52   -1.007010058446e-13
    53   -2.263759564531e-02
    54    7.313039066308e-03
    55    1.426718137264e-03
    56    1.942182602615e-13
    57    5.063529113899e-02
    58   -3.660985257491e-02
    59    4.726769160906e-02
    60   -1.398314533208e-11
    61    2.519413476983e-03