[Molden Format]
[Atoms] (Angs)
  H      1    1      2.47503475      0.00000000     -0.00000000
  C      2    6      1.39359294      0.00000000     -0.00000000
  C      3    6      0.69679647      1.20688689      0.00000000
  H      4    1      1.23751738      2.14344297      0.00000000
  C      5    6     -0.69679647      1.20688689      0.00000000
  H      6    1     -1.23751738      2.14344297      0.00000000
  C      7    6     -1.39359294     -0.00000000      0.00000000
  H      8    1     -2.47503475     -0.00000000      0.00000000
  C      9    6     -0.69679647     -1.20688689     -0.00000000
  H     10    1     -1.23751738     -2.14344297     -0.00000000
  C     11    6      0.69679647     -1.20688689     -0.00000000
  H     12    1      1.23751738     -2.14344297     -0.00000000
[GTO]
1    0
S    3    1.000000
   3.38650000E+01    2.54938000E-02 
   5.09479000E+00    1.90373000E-01 
   1.15879000E+00    8.52161000E-01 
S    1    1.000000
   3.25840000E-01    1.00000000E+00 
S    1    1.000000
   1.02741000E-01    1.00000000E+00 
S    1    1.000000
   3.60000000E-02    1.00000000E+00 
P    1    1.000000
   7.50000000E-01    1.00000000E+00 

2    0
S    1    1.000000
   4.56324000E+03    1.96665000E-03 
S    1    1.000000
   6.82024000E+02    1.52306000E-02 
S    1    1.000000
   1.54973000E+02    7.61269000E-02 
S    1    1.000000
   4.44553000E+01    2.60801000E-01 
S    1    1.000000
   1.30290000E+01    6.16462000E-01 
S    1    1.000000
   1.82773000E+00    2.21006000E-01 
SP   3    1.000000
   2.09642000E+01    1.14660000E-01   4.02487000E-02 
   4.80331000E+00    9.19999000E-01   2.37594000E-01 
   1.45933000E+00   -3.03068000E-03   8.15854000E-01 
SP   1    1.000000
   4.83456000E-01    1.00000000E+00   1.00000000E+00 
SP   1    1.000000
   1.45585000E-01    1.00000000E+00   1.00000000E+00 
SP   1    1.000000
   4.38000000E-02    1.00000000E+00   1.00000000E+00 
SP   1    1.000000
   1.31927711E-02    1.00000000E+00   1.00000000E+00 
D    1    1.000000
   6.26000000E-01    1.00000000E+00 

3    0
S    1    1.000000
   4.56324000E+03    1.96665000E-03 
S    1    1.000000
   6.82024000E+02    1.52306000E-02 
S    1    1.000000
   1.54973000E+02    7.61269000E-02 
S    1    1.000000
   4.44553000E+01    2.60801000E-01 
S    1    1.000000
   1.30290000E+01    6.16462000E-01 
S    1    1.000000
   1.82773000E+00    2.21006000E-01 
SP   3    1.000000
   2.09642000E+01    1.14660000E-01   4.02487000E-02 
   4.80331000E+00    9.19999000E-01   2.37594000E-01 
   1.45933000E+00   -3.03068000E-03   8.15854000E-01 
SP   1    1.000000
   4.83456000E-01    1.00000000E+00   1.00000000E+00 
SP   1    1.000000
   1.45585000E-01    1.00000000E+00   1.00000000E+00 
SP   1    1.000000
   4.38000000E-02    1.00000000E+00   1.00000000E+00 
SP   1    1.000000
   1.31927711E-02    1.00000000E+00   1.00000000E+00 
D    1    1.000000
   6.26000000E-01    1.00000000E+00 

4    0
S    3    1.000000
   3.38650000E+01    2.54938000E-02 
   5.09479000E+00    1.90373000E-01 
   1.15879000E+00    8.52161000E-01 
S    1    1.000000
   3.25840000E-01    1.00000000E+00 
S    1    1.000000
   1.02741000E-01    1.00000000E+00 
S    1    1.000000
   3.60000000E-02    1.00000000E+00 
P    1    1.000000
   7.50000000E-01    1.00000000E+00 

5    0
S    1    1.000000
   4.56324000E+03    1.96665000E-03 
S    1    1.000000
   6.82024000E+02    1.52306000E-02 
S    1    1.000000
   1.54973000E+02    7.61269000E-02 
S    1    1.000000
   4.44553000E+01    2.60801000E-01 
S    1    1.000000
   1.30290000E+01    6.16462000E-01 
S    1    1.000000
   1.82773000E+00    2.21006000E-01 
SP   3    1.000000
   2.09642000E+01    1.14660000E-01   4.02487000E-02 
   4.80331000E+00    9.19999000E-01   2.37594000E-01 
   1.45933000E+00   -3.03068000E-03   8.15854000E-01 
SP   1    1.000000
   4.83456000E-01    1.00000000E+00   1.00000000E+00 
SP   1    1.000000
   1.45585000E-01    1.00000000E+00   1.00000000E+00 
SP   1    1.000000
   4.38000000E-02    1.00000000E+00   1.00000000E+00 
SP   1    1.000000
   1.31927711E-02    1.00000000E+00   1.00000000E+00 
D    1    1.000000
   6.26000000E-01    1.00000000E+00 

6    0
S    3    1.000000
   3.38650000E+01    2.54938000E-02 
   5.09479000E+00    1.90373000E-01 
   1.15879000E+00    8.52161000E-01 
S    1    1.000000
   3.25840000E-01    1.00000000E+00 
S    1    1.000000
   1.02741000E-01    1.00000000E+00 
S    1    1.000000
   3.60000000E-02    1.00000000E+00 
P    1    1.000000
   7.50000000E-01    1.00000000E+00 

7    0
S    1    1.000000
   4.56324000E+03    1.96665000E-03 
S    1    1.000000
   6.82024000E+02    1.52306000E-02 
S    1    1.000000
   1.54973000E+02    7.61269000E-02 
S    1    1.000000
   4.44553000E+01    2.60801000E-01 
S    1    1.000000
   1.30290000E+01    6.16462000E-01 
S    1    1.000000
   1.82773000E+00    2.21006000E-01 
SP   3    1.000000
   2.09642000E+01    1.14660000E-01   4.02487000E-02 
   4.80331000E+00    9.19999000E-01   2.37594000E-01 
   1.45933000E+00   -3.03068000E-03   8.15854000E-01 
SP   1    1.000000
   4.83456000E-01    1.00000000E+00   1.00000000E+00 
SP   1    1.000000
   1.45585000E-01    1.00000000E+00   1.00000000E+00 
SP   1    1.000000
   4.38000000E-02    1.00000000E+00   1.00000000E+00 
SP   1    1.000000
   1.31927711E-02    1.00000000E+00   1.00000000E+00 
D    1    1.000000
   6.26000000E-01    1.00000000E+00 

8    0
S    3    1.000000
   3.38650000E+01    2.54938000E-02 
   5.09479000E+00    1.90373000E-01 
   1.15879000E+00    8.52161000E-01 
S    1    1.000000
   3.25840000E-01    1.00000000E+00 
S    1    1.000000
   1.02741000E-01    1.00000000E+00 
S    1    1.000000
   3.60000000E-02    1.00000000E+00 
P    1    1.000000
   7.50000000E-01    1.00000000E+00 

9    0
S    1    1.000000
   4.56324000E+03    1.96665000E-03 
S    1    1.000000
   6.82024000E+02    1.52306000E-02 
S    1    1.000000
   1.54973000E+02    7.61269000E-02 
S    1    1.000000
   4.44553000E+01    2.60801000E-01 
S    1    1.000000
   1.30290000E+01    6.16462000E-01 
S    1    1.000000
   1.82773000E+00    2.21006000E-01 
SP   3    1.000000
   2.09642000E+01    1.14660000E-01   4.02487000E-02 
   4.80331000E+00    9.19999000E-01   2.37594000E-01 
   1.45933000E+00   -3.03068000E-03   8.15854000E-01 
SP   1    1.000000
   4.83456000E-01    1.00000000E+00   1.00000000E+00 
SP   1    1.000000
   1.45585000E-01    1.00000000E+00   1.00000000E+00 
SP   1    1.000000
   4.38000000E-02    1.00000000E+00   1.00000000E+00 
SP   1    1.000000
   1.31927711E-02    1.00000000E+00   1.00000000E+00 
D    1    1.000000
   6.26000000E-01    1.00000000E+00 

10    0
S    3    1.000000
   3.38650000E+01    2.54938000E-02 
   5.09479000E+00    1.90373000E-01 
   1.15879000E+00    8.52161000E-01 
S    1    1.000000
   3.25840000E-01    1.00000000E+00 
S    1    1.000000
   1.02741000E-01    1.00000000E+00 
S    1    1.000000
   3.60000000E-02    1.00000000E+00 
P    1    1.000000
   7.50000000E-01    1.00000000E+00 

11    0
S    1    1.000000
   4.56324000E+03    1.96665000E-03 
S    1    1.000000
   6.82024000E+02    1.52306000E-02 
S    1    1.000000
   1.54973000E+02    7.61269000E-02 
S    1    1.000000
   4.44553000E+01    2.60801000E-01 
S    1    1.000000
   1.30290000E+01    6.16462000E-01 
S    1    1.000000
   1.82773000E+00    2.21006000E-01 
SP   3    1.000000
   2.09642000E+01    1.14660000E-01   4.02487000E-02 
   4.80331000E+00    9.19999000E-01   2.37594000E-01 
   1.45933000E+00   -3.03068000E-03   8.15854000E-01 
SP   1    1.000000
   4.83456000E-01    1.00000000E+00   1.00000000E+00 
SP   1    1.000000
   1.45585000E-01    1.00000000E+00   1.00000000E+00 
SP   1    1.000000
   4.38000000E-02    1.00000000E+00   1.00000000E+00 
SP   1    1.000000
   1.31927711E-02    1.00000000E+00   1.00000000E+00 
D    1    1.000000
   6.26000000E-01    1.00000000E+00 

12    0
S    3    1.000000
   3.38650000E+01    2.54938000E-02 
   5.09479000E+00    1.90373000E-01 
   1.15879000E+00    8.52161000E-01 
S    1    1.000000
   3.25840000E-01    1.00000000E+00 
S    1    1.000000
   1.02741000E-01    1.00000000E+00 
S    1    1.000000
   3.60000000E-02    1.00000000E+00 
P    1    1.000000
   7.50000000E-01    1.00000000E+00 

[MO]
Sym=X
Ene= 1.996654
Spin=Alpha
Occup=1
     1    3.127125091104e-03
     2    1.714715676420e-04
     3   -7.464379947107e-03
     4    2.560171850467e-02
     5   -2.605597612450e-03
     6   -3.200182202372e-10
     7    1.628056532431e-15
     8   -5.392925690669e-05
     9   -4.078914428628e-04
    10   -2.157821689418e-03
    11   -7.095111339745e-03
    12   -1.796379764224e-02
    13   -5.651075351739e-03
    14   -4.327596317494e-02
    15   -2.259837248795e-02
    16   -5.437036997058e-09
    17    1.509670830639e-14
    18    1.175821886686e-01
    19   -3.542804487832e-02
    20   -8.418506210400e-09
    21    3.022746210787e-14
    22    2.968838864850e-02
    23   -8.397528060838e-03
    24   -1.956591442535e-10
    25    1.367891402947e-14
    26    1.318511315843e-01
    27   -5.511542710551e-02
    28    8.385430444130e-10
    29   -6.800905907989e-15
    30    1.227107787716e-02
    31   -2.076040119022e-03
    32    6.370959419627e-09
    33    3.387644129189e-13
    34   -6.218861633435e-03
    35   -3.650173290057e-15
    36    2.234616111757e-15
    37   -7.096987613243e-03
    38    6.124994522506e-10
    39   -9.828711874827e-05
    40   -7.417391077459e-04
    41   -3.944629814638e-03
    42   -1.287470280396e-02
    43   -3.241492160566e-02
    44   -1.189068379578e-02
    45   -8.396140961716e-02
    46   -7.798797832124e-03
    47    1.868341783735e-02
    48    2.071251321256e-14
    49    2.387086506919e-01
    50   -1.416475910441e-02
    51    2.390001209081e-02
    52    3.669218722625e-14
    53    1.217366705630e-01
    54    7.574893702596e-03
    55    1.953530680445e-02
    56    3.653862579873e-14
    57   -6.298699947719e-02
    58    1.792438917023e-02
    59    3.207515242757e-02
    60    1.904633628701e-14
    61   -6.624891843066e-03
    62   -2.312458371575e-03
    63    1.732360831468e-04
    64   -3.301582819276e-13
    65   -1.023091659091e-02
    66   -2.365818602497e-15
    67   -1.903071920941e-15
    68    2.808987525702e-03
    69   -2.705184483786e-04
    70    5.364273539103e-02
    71    7.495772060214e-02
    72   -6.215181987631e-03
    73   -1.334730065388e-02
    74   -6.076991568483e-03
    75   -9.590207179236e-03
    76    2.483463319195e-15
    77   -9.828733262255e-05
    78   -7.417407622665e-04
    79   -3.944638083054e-03
    80   -1.287473113878e-02
    81   -3.241498855243e-02
    82   -1.189070852741e-02
    83   -8.396150240054e-02
    84    7.798792916850e-03
    85    1.868341525872e-02
    86    2.390875568419e-14
    87    2.387086636231e-01
    88    1.416475161194e-02
    89    2.390000833903e-02
    90    5.676092759823e-14
    91    1.217367009466e-01
    92   -7.574889379892e-03
    93    1.953530100493e-02
    94    2.723644856386e-14
    95   -6.298699676780e-02
    96   -1.792438366721e-02
    97    3.207513947087e-02
    98   -2.093560172629e-14
    99   -6.624890621906e-03
   100    2.312461538235e-03
   101    1.732432570536e-04
   102    3.921353722190e-13
   103   -1.023091738425e-02
   104    2.096616143592e-15
   105   -4.200829558040e-15
   106    2.808987529495e-03
   107    2.705198851984e-04
   108    5.364273823074e-02
   109    7.495772335739e-02
   110   -6.215178899838e-03
   111   -1.334727460136e-02
   112    6.076991600476e-03
   113   -9.590207941890e-03
   114    1.561084460376e-15
   115   -5.392925701573e-05
   116   -4.078914437070e-04
   117   -2.157821693621e-03
   118   -7.095111354193e-03
   119   -1.796379767623e-02
   120   -5.651075364007e-03
   121   -4.327596321961e-02
   122    2.259837248826e-02
   123    5.438784356085e-09
   124    2.678992898382e-14
   125    1.175821886615e-01
   126    3.542804487920e-02
   127    8.419033739033e-09
   128    4.624209585510e-14
   129    2.968838864923e-02
   130    8.397528062795e-03
   131    1.652619591166e-10
   132    4.273200509853e-14
   133    1.318511329072e-01
   134    5.511542716869e-02
   135    6.684506358759e-10
   136    3.978800451320e-14
   137    1.227107791430e-02
   138    2.076040117250e-03
   139   -6.350092845044e-09
   140   -4.469412484800e-13
   141   -6.218861633039e-03
   142    4.005453760698e-15
   143   -1.111778633386e-15
   144   -7.096987613385e-03
   145    6.095383983452e-10
   146    3.127125089378e-03
   147    1.714715667775e-04
   148   -7.464379948626e-03
   149    2.560171857914e-02
   150    2.605597612214e-03
   151    3.192663704940e-10
   152    4.467062698266e-15
   153   -9.828711795431e-05
   154   -7.417391015959e-04
   155   -3.944629784011e-03
   156   -1.287470269871e-02
   157   -3.241492135795e-02
   158   -1.189068370569e-02
   159   -8.396140929058e-02
   160    7.798797842661e-03
   161   -1.868341784646e-02
   162    2.600006558244e-14
   163    2.387086507374e-01
   164    1.416475912510e-02
   165   -2.390001210240e-02
   166    3.776957024501e-14
   167    1.217366705595e-01
   168   -7.574893690722e-03
   169   -1.953530682747e-02
   170    3.630483167537e-14
   171   -6.298699643041e-02
   172   -1.792438926864e-02
   173   -3.207515236487e-02
   174   -4.307252487382e-14
   175   -6.624891748313e-03
   176    2.312458378753e-03
   177   -1.732360814779e-04
   178    4.634186449090e-13
   179   -1.023091659316e-02
   180    3.027260675225e-15
   181    6.000434168947e-15
   182    2.808987527381e-03
   183   -2.705184457561e-04
   184    5.364273539973e-02
   185    7.495772061304e-02
   186   -6.215182024346e-03
   187   -1.334730063203e-02
   188    6.076991571884e-03
   189    9.590207181784e-03
   190    1.268245187460e-15
   191   -9.828733156795e-05
   192   -7.417407540954e-04
   193   -3.944638042342e-03
   194   -1.287473099893e-02
   195   -3.241498822303e-02
   196   -1.189070840742e-02
   197   -8.396150196554e-02
   198   -7.798792925064e-03
   199   -1.868341526735e-02
   200    1.351939048304e-14
   201    2.387086636748e-01
   202   -1.416475162728e-02
   203   -2.390000834905e-02
   204    3.722479869578e-14
   205    1.217367009578e-01
   206    7.574889355601e-03
   207   -1.953530101871e-02
   208    2.382075735666e-14
   209   -6.298699506439e-02
   210    1.792438487189e-02
   211   -3.207513877500e-02
   212    3.166334718509e-14
   213   -6.624890563630e-03
   214   -2.312461520409e-03
   215   -1.732432370231e-04
   216   -4.061407744104e-13
   217   -1.023091738731e-02
   218    7.324333623673e-16
   219    3.559327662898e-15
   220    2.808987530958e-03
   221    2.705198827605e-04
   222    5.364273824151e-02
   223    7.495772337030e-02
   224   -6.215178910781e-03
   225   -1.334727460297e-02
   226   -6.076991603355e-03
   227    9.590207945577e-03
   228    4.248455061027e-16
Sym=X
Ene= 1.996482
Spin=Alpha
Occup=1
     1    8.663176873878e-11
     2   -1.358559162144e-09
     3    7.797553663488e-10
     4    4.249805941858e-09
     5    3.861735713604e-10
     6   -9.642294270737e-04
     7    6.571095147579e-14
     8    1.593137149456e-12
     9    1.184477008657e-11
    10    6.428271462867e-11
    11    2.047438252227e-10
    12    5.752620608914e-10
    13    6.380864872655e-10
    14    1.187365253961e-09
    15    1.504631993199e-09
    16   -2.782972103056e-02
    17    1.322830724042e-13
    18   -5.776989513611e-09
    19    2.715099018439e-09
    20   -4.251821560277e-02
    21    3.472219719873e-13
    22    6.562655926472e-09
    23    1.994401515945e-09
    24   -7.088980235993e-03
    25   -3.905368623285e-13
    26    1.356039846647e-07
    27   -2.714080029092e-09
    28    7.017697988556e-02
    29    3.575803006732e-11
    30    4.558637995233e-09
    31   -2.873667332129e-09
    32   -4.414604173218e-03
    33   -6.332449311516e-11
    34   -1.643669905820e-09
    35    5.405123789511e-14
    36   -1.699035830258e-15
    37   -9.564506975838e-10
    38    5.655663528612e-03
    39    9.999406477685e-05
    40    7.569255756061e-04
    41    3.999433595095e-03
    42    1.312591076138e-02
    43    3.263863740672e-02
    44    1.067714046881e-02
    45    8.259652905120e-02
    46   -3.126729578995e-03
    47   -4.487079517321e-02
    48   -1.351642506177e-13
    49   -2.196819645861e-01
    50   -1.867048534084e-03
    51   -6.405762594739e-02
    52   -3.582504571458e-13
    53   -1.194660912814e-01
    54   -1.232481105254e-02
    55   -3.623341477846e-02
    56    3.760671075279e-13
    57   -9.528202571714e-02
    58   -5.627477769650e-02
    59   -2.630584596073e-02
    60   -3.571131718524e-11
    61   -4.451348894452e-03
    62    4.537264624949e-03
    63    2.488048551174e-03
    64    6.325656441412e-11
    65    9.039439004847e-03
    66   -2.739398018740e-14
    67   -4.941630412783e-14
    68   -4.009132189127e-03
    69   -2.494438237003e-04
    70   -7.034413698428e-02
    71   -1.020510894834e-01
    72    6.337059694982e-03
    73    3.474924074746e-02
    74    7.693608235657e-03
    75    1.187333315014e-02
    76   -6.783639129108e-14
    77    9.999410487180e-05
    78    7.569258857158e-04
    79    3.999435145324e-03
    80    1.312591606836e-02
    81    3.263864992265e-02
    82    1.067714501119e-02
    83    8.259654660859e-02
    84    3.126730509813e-03
    85   -4.487079939188e-02
    86    1.359347176723e-13
    87   -2.196819655224e-01
    88    1.867044741092e-03
    89   -6.405763110725e-02
    90    3.503559951556e-13
    91   -1.194661058121e-01
    92    1.232480132545e-02
    93   -3.623341908859e-02
    94   -3.689289582597e-13
    95   -9.528217656389e-02
    96    5.627468093536e-02
    97   -2.630594976740e-02
    98    3.567112967390e-11
    99   -4.451353857846e-03
   100   -4.537263196536e-03
   101    2.488046334089e-03
   102   -6.319246984022e-11
   103    9.039438527050e-03
   104   -2.799423799050e-14
   105    4.600115630268e-14
   106   -4.009135698485e-03
   107    2.494447062856e-04
   108   -7.034414186297e-02
   109   -1.020511067811e-01
   110    6.337072141739e-03
   111    3.474927990635e-02
   112   -7.693609177357e-03
   113    1.187333665062e-02
   114    6.632235903249e-14
   115   -1.857027781538e-12
   116   -1.389576033990e-11
   117   -7.444828915441e-11
   118   -2.397826347135e-10
   119   -6.567334119134e-10
   120   -6.652693992044e-10
   121   -1.287543718030e-09
   122    1.516823597517e-09
   123   -2.782972103073e-02
   124   -1.278414449242e-13
   125    5.699733032406e-09
   126    2.735555193395e-09
   127   -4.251821560365e-02
   128   -3.372037285278e-13
   129   -6.551973843663e-09
   130    2.026731498952e-09
   131   -7.088980223625e-03
   132    3.753714755375e-13
   133   -1.358999586292e-07
   134   -2.650342508327e-09
   135    7.017697919480e-02
   136   -3.567798480854e-11
   137   -4.572676319511e-09
   138   -2.987295686135e-09
   139   -4.414604109837e-03
   140    6.322041499737e-11
   141    1.646501508714e-09
   142    5.445460145137e-14
   143    3.567170903059e-16
   144    9.519165279037e-10
   145   -5.655663528549e-03
   146   -1.128304977150e-10
   147    1.335509844486e-09
   148   -8.072329753119e-10
   149   -4.193024144220e-09
   150    3.852232714504e-10
   151   -9.642294272738e-04
   152   -6.526538977083e-14
   153   -9.999406492378e-05
   154   -7.569255767492e-04
   155   -3.999433600760e-03
   156   -1.312591078092e-02
   157   -3.263863745197e-02
   158   -1.067714048303e-02
   159   -8.259652910733e-02
   160   -3.126729577205e-03
   161   -4.487079517681e-02
   162    1.376842000577e-13
   163    2.196819645431e-01
   164   -1.867048531943e-03
   165   -6.405762595969e-02
   166    3.482056798425e-13
   167    1.194660912327e-01
   168   -1.232481105062e-02
   169   -3.623341477778e-02
   170   -3.765189135798e-13
   171    9.528202623808e-02
   172   -5.627477709085e-02
   173   -2.630584614913e-02
   174    3.576330013227e-11
   175    4.451348939943e-03
   176    4.537264756751e-03
   177    2.488048477518e-03
   178   -6.330379372240e-11
   179   -9.039439004728e-03
   180   -2.600492600565e-14
   181   -4.235834119812e-14
   182    4.009132188904e-03
   183    2.494438243324e-04
   184    7.034413697960e-02
   185    1.020510894717e-01
   186   -6.337059655757e-03
   187   -3.474924067937e-02
   188    7.693608234034e-03
   189    1.187333314761e-02
   190    6.365694661408e-14
   191   -9.999410500402e-05
   192   -7.569258867367e-04
   193   -3.999435150388e-03
   194   -1.312591608583e-02
   195   -3.263864996307e-02
   196   -1.067714502356e-02
   197   -8.259654665971e-02
   198    3.126730510089e-03
   199   -4.487079939873e-02
   200   -1.265186215879e-13
   201    2.196819654890e-01
   202    1.867044743555e-03
   203   -6.405763112416e-02
   204   -3.404206323054e-13
   205    1.194661057793e-01
   206    1.232480131313e-02
   207   -3.623341911493e-02
   208    3.989203047236e-13
   209    9.528217632887e-02
   210    5.627468175480e-02
   211   -2.630594952531e-02
   212   -3.580412916597e-11
   213    4.451353824253e-03
   214   -4.537263297490e-03
   215    2.488046405623e-03
   216    6.337551683603e-11
   217   -9.039438527004e-03
   218   -2.599451169164e-14
   219    4.664226992209e-14
   220    4.009135697901e-03
   221   -2.494447077163e-04
   222    7.034414186152e-02
   223    1.020511067747e-01
   224   -6.337072154280e-03
   225   -3.474928001845e-02
   226   -7.693609175909e-03
   227    1.187333664862e-02
   228   -6.478011034883e-14
Sym=X
Ene= 1.995661
Spin=Alpha
Occup=1
     1    6.261333694182e-09
     2    7.823007398414e-09
     3    9.269424360294e-10
     4    4.938288929770e-08
     5   -1.303069267719e-09
     6   -4.026643532021e-04
     7    2.504265282258e-14
     8   -1.385203565055e-11
     9   -1.048645769758e-10
    10   -5.534611959660e-10
    11   -1.811326472038e-09
    12   -4.458808405411e-09
    13   -1.905946895194e-09
    14   -1.145423917514e-08
    15    5.719998051833e-10
    16   -3.016330094336e-02
    17    2.547380976469e-13
    18    2.940053997176e-08
    19    1.026365652938e-09
    20   -4.554844040868e-02
    21    4.654545387874e-13
    22    3.391274046621e-08
    23   -4.951463063512e-09
    24    4.929190815540e-03
    25    3.515016867304e-13
    26   -9.340794979374e-09
    27   -2.072453520876e-08
    28   -2.480584632271e-03
    29   -1.946790104086e-13
    30    8.514060228970e-10
    31    3.556125839625e-09
    32   -3.669507045547e-03
    33    1.987041408416e-12
    34   -1.150445644909e-09
    35   -3.674360488116e-14
    36    5.205020034414e-14
    37   -7.038172341789e-10
    38    3.184868930868e-03
    39    8.219299925118e-05
    40    6.222347449244e-04
    41    3.288342112067e-03
    42    1.078986579147e-02
    43    2.674643499794e-02
    44    8.286312858338e-03
    45    6.869675022232e-02
    46   -4.536004494350e-02
    47   -4.947644638354e-02
    48    2.799192481605e-13
    49   -1.858555965689e-01
    50   -6.749154460180e-02
    51   -7.073695989599e-02
    52    5.004711248027e-13
    53   -1.340073541644e-01
    54   -3.115178078590e-02
    55   -5.647881989106e-02
    56    3.369075950037e-13
    57    3.055779861127e-01
    58   -7.416198473686e-02
    59   -1.242791055739e-01
    60    1.938721963526e-13
    61    2.948994268373e-02
    62   -3.976810801594e-03
    63   -3.187994518726e-03
    64   -1.963119967895e-12
    65    6.336175352288e-03
    66    8.113338269159e-16
    67   -4.755662911891e-14
    68    7.251273547809e-03
    69   -9.673835804212e-03
    70   -8.878448912199e-02
    71   -1.318252011141e-01
    72   -6.860607872877e-03
    73    6.137083087434e-02
    74    6.959745885523e-03
    75    1.252499083526e-02
    76    2.544474450586e-14
    77   -8.219296794795e-05
    78   -6.222345044098e-04
    79   -3.288340888756e-03
    80   -1.078986166874e-02
    81   -2.674642523314e-02
    82   -8.286309494140e-03
    83   -6.869673212352e-02
    84   -4.536006143418e-02
    85    4.947643134083e-02
    86    3.010519701341e-13
    87    1.858555722010e-01
    88   -6.749157026701e-02
    89    7.073693623514e-02
    90    5.030809340817e-13
    91    1.340073260576e-01
    92   -3.115178884122e-02
    93    5.647882062743e-02
    94    4.080112762275e-13
    95   -3.055779851768e-01
    96   -7.416199409461e-02
    97    1.242791198743e-01
    98   -1.462062466361e-13
    99   -2.948994417935e-02
   100   -3.976786129823e-03
   101    3.188003847260e-03
   102    1.938578761031e-12
   103   -6.336174491121e-03
   104    9.387416311014e-14
   105   -5.232102161535e-16
   106   -7.251276919193e-03
   107   -9.673834356661e-03
   108    8.878448170168e-02
   109    1.318251900334e-01
   110    6.860605685642e-03
   111   -6.137087178699e-02
   112    6.959743975655e-03
   113   -1.252498996007e-02
   114    2.017316787582e-14
   115   -1.370511307677e-11
   116   -1.037324349769e-10
   117   -5.478049244728e-10
   118   -1.791933922918e-09
   119   -4.413175657653e-09
   120   -1.890026337393e-09
   121   -1.139266563738e-08
   122   -5.844344345435e-10
   123    3.016330094013e-02
   124    2.953853916341e-13
   125    2.940129027091e-08
   126   -1.045688759479e-09
   127    4.554844040405e-02
   128    5.063344447578e-13
   129    3.395366776513e-08
   130    4.947110416663e-09
   131   -4.929190829634e-03
   132    3.636982307253e-13
   133   -8.002459318681e-09
   134    2.072206907465e-08
   135    2.480583695484e-03
   136    1.482468103924e-13
   137    9.026966442551e-10
   138   -3.545943486345e-09
   139    3.669507028069e-03
   140   -1.905537070105e-12
   141   -1.147971086805e-09
   142    5.559396234800e-14
   143    5.189441212783e-14
   144   -7.009573763648e-10
   145    3.184868931073e-03
   146    6.272954146997e-09
   147    7.840819201712e-09
   148    9.266369235929e-10
   149    4.938395537733e-08
   150    1.306787002869e-09
   151    4.026643527033e-04
   152    1.432741571383e-14
   153    8.219299918286e-05
   154    6.222347443915e-04
   155    3.288342109447e-03
   156    1.078986578239e-02
   157    2.674643497663e-02
   158    8.286312849113e-03
   159    6.869675019967e-02
   160    4.536004494901e-02
   161    4.947644639208e-02
   162    2.810267798496e-13
   163   -1.858555965993e-01
   164    6.749154460096e-02
   165    7.073695990390e-02
   166    4.616775693508e-13
   167   -1.340073541762e-01
   168    3.115178081704e-02
   169    5.647881988164e-02
   170    3.674196681152e-13
   171    3.055779853372e-01
   172    7.416198568521e-02
   173    1.242791049808e-01
   174   -1.637637791243e-13
   175    2.948994266472e-02
   176    3.976810814975e-03
   177    3.187994510958e-03
   178    1.947938115836e-12
   179    6.336175350988e-03
   180    4.712637648455e-14
   181    3.046054697065e-14
   182    7.251273546966e-03
   183   -9.673835805184e-03
   184   -8.878448913361e-02
   185   -1.318252011427e-01
   186   -6.860607867139e-03
   187    6.137083082558e-02
   188   -6.959745889398e-03
   189   -1.252499084300e-02
   190    1.506329363592e-14
   191   -8.219296788556e-05
   192   -6.222345039242e-04
   193   -3.288340886357e-03
   194   -1.078986166044e-02
   195   -2.674642521360e-02
   196   -8.286309485669e-03
   197   -6.869673210166e-02
   198    4.536006144238e-02
   199   -4.947643134350e-02
   200    2.579014168370e-13
   201    1.858555722227e-01
   202    6.749157027167e-02
   203   -7.073693623460e-02
   204    4.319053063839e-13
   205    1.340073260168e-01
   206    3.115178885648e-02
   207   -5.647882060632e-02
   208    3.196631009896e-13
   209   -3.055779873851e-01
   210    7.416199416392e-02
   211   -1.242791196318e-01
   212    1.779272898085e-13
   213   -2.948994423263e-02
   214    3.976786121891e-03
   215   -3.188003839279e-03
   216   -1.947525870802e-12
   217   -6.336174489993e-03
   218    4.877426976311e-14
   219    7.342214577819e-14
   220   -7.251276919111e-03
   221   -9.673834357141e-03
   222    8.878448171021e-02
   223    1.318251900542e-01
   224    6.860605775007e-03
   225   -6.137087162774e-02
   226   -6.959743979345e-03
   227    1.252498996718e-02
   228    1.985810248196e-14
Sym=X
Ene= 1.995658
Spin=Alpha
Occup=1
     1    3.388958286307e-02
     2    4.703559855600e-02
     3   -1.620331091083e-02
     4   -3.507972538572e-02
     5   -9.275889327269e-03
     6    1.131403362064e-11
     7    5.698481813502e-14
     8   -6.648347018503e-05
     9   -5.027385415812e-04
    10   -2.666767220714e-03
    11   -8.756256574903e-03
    12   -2.195329546448e-02
    13   -5.119021127052e-03
    14   -5.687334012727e-02
    15    1.391034191852e-02
    16    1.338182945276e-09
    17    1.332304776353e-13
    18    1.559781991436e-01
    19    1.647666443676e-02
    20   -4.494763974264e-10
    21    3.180534472273e-13
    22    4.179881045181e-02
    23    2.071183391133e-02
    24    6.667928741806e-10
    25   -2.089043209498e-13
    26    9.406189993104e-02
    27    4.618368610622e-02
    28   -8.346099991653e-08
    29    2.947671194561e-11
    30    4.497269668637e-03
    31   -2.479898429650e-03
    32    4.665950938969e-10
    33   -5.231138330088e-11
    34   -7.695153422719e-03
    35    3.909978995276e-14
    36    7.640936072323e-16
    37   -1.227773044732e-02
    38    2.301078863511e-09
    39   -7.372715471234e-05
    40   -5.571030203580e-04
    41   -2.957909168021e-03
    42   -9.668770740193e-03
    43   -2.404620252100e-02
    44   -7.049505335315e-03
    45   -6.413538825485e-02
    46    4.536934076592e-02
    47    3.304721449192e-02
    48   -7.093564012083e-14
    49    1.779035299601e-01
    50    6.785002627299e-02
    51    4.584001877434e-02
    52   -2.103858949775e-13
    53    1.337963081661e-01
    54    2.639068242894e-02
    55    2.926399871004e-02
    56    2.955925537432e-13
    57    4.611795683978e-02
    58   -3.055143634718e-02
    59    5.091989982525e-02
    60   -2.948199690246e-11
    61    1.935828923778e-03