[Molden Format]
[Atoms] (Angs)
  H      1    1      2.47503475      0.00000000     -0.00000000
  C      2    6      1.39359294      0.00000000     -0.00000000
  C      3    6      0.69679647      1.20688689      0.00000000
  H      4    1      1.23751738      2.14344297      0.00000000
  C      5    6     -0.69679647      1.20688689      0.00000000
  H      6    1     -1.23751738      2.14344297      0.00000000
  C      7    6     -1.39359294     -0.00000000      0.00000000
  H      8    1     -2.47503475     -0.00000000      0.00000000
  C      9    6     -0.69679647     -1.20688689     -0.00000000
  H     10    1     -1.23751738     -2.14344297     -0.00000000
  C     11    6      0.69679647     -1.20688689     -0.00000000
  H     12    1      1.23751738     -2.14344297     -0.00000000
[GTO]
1    0
S    3    1.000000
   3.38650000E+01    2.54938000E-02 
   5.09479000E+00    1.90373000E-01 
   1.15879000E+00    8.52161000E-01 
S    1    1.000000
   3.25840000E-01    1.00000000E+00 
S    1    1.000000
   1.02741000E-01    1.00000000E+00 
S    1    1.000000
   3.60000000E-02    1.00000000E+00 
P    1    1.000000
   7.50000000E-01    1.00000000E+00 

2    0
S    1    1.000000
   4.56324000E+03    1.96665000E-03 
S    1    1.000000
   6.82024000E+02    1.52306000E-02 
S    1    1.000000
   1.54973000E+02    7.61269000E-02 
S    1    1.000000
   4.44553000E+01    2.60801000E-01 
S    1    1.000000
   1.30290000E+01    6.16462000E-01 
S    1    1.000000
   1.82773000E+00    2.21006000E-01 
SP   3    1.000000
   2.09642000E+01    1.14660000E-01   4.02487000E-02 
   4.80331000E+00    9.19999000E-01   2.37594000E-01 
   1.45933000E+00   -3.03068000E-03   8.15854000E-01 
SP   1    1.000000
   4.83456000E-01    1.00000000E+00   1.00000000E+00 
SP   1    1.000000
   1.45585000E-01    1.00000000E+00   1.00000000E+00 
SP   1    1.000000
   4.38000000E-02    1.00000000E+00   1.00000000E+00 
SP   1    1.000000
   1.31927711E-02    1.00000000E+00   1.00000000E+00 
D    1    1.000000
   6.26000000E-01    1.00000000E+00 

3    0
S    1    1.000000
   4.56324000E+03    1.96665000E-03 
S    1    1.000000
   6.82024000E+02    1.52306000E-02 
S    1    1.000000
   1.54973000E+02    7.61269000E-02 
S    1    1.000000
   4.44553000E+01    2.60801000E-01 
S    1    1.000000
   1.30290000E+01    6.16462000E-01 
S    1    1.000000
   1.82773000E+00    2.21006000E-01 
SP   3    1.000000
   2.09642000E+01    1.14660000E-01   4.02487000E-02 
   4.80331000E+00    9.19999000E-01   2.37594000E-01 
   1.45933000E+00   -3.03068000E-03   8.15854000E-01 
SP   1    1.000000
   4.83456000E-01    1.00000000E+00   1.00000000E+00 
SP   1    1.000000
   1.45585000E-01    1.00000000E+00   1.00000000E+00 
SP   1    1.000000
   4.38000000E-02    1.00000000E+00   1.00000000E+00 
SP   1    1.000000
   1.31927711E-02    1.00000000E+00   1.00000000E+00 
D    1    1.000000
   6.26000000E-01    1.00000000E+00 

4    0
S    3    1.000000
   3.38650000E+01    2.54938000E-02 
   5.09479000E+00    1.90373000E-01 
   1.15879000E+00    8.52161000E-01 
S    1    1.000000
   3.25840000E-01    1.00000000E+00 
S    1    1.000000
   1.02741000E-01    1.00000000E+00 
S    1    1.000000
   3.60000000E-02    1.00000000E+00 
P    1    1.000000
   7.50000000E-01    1.00000000E+00 

5    0
S    1    1.000000
   4.56324000E+03    1.96665000E-03 
S    1    1.000000
   6.82024000E+02    1.52306000E-02 
S    1    1.000000
   1.54973000E+02    7.61269000E-02 
S    1    1.000000
   4.44553000E+01    2.60801000E-01 
S    1    1.000000
   1.30290000E+01    6.16462000E-01 
S    1    1.000000
   1.82773000E+00    2.21006000E-01 
SP   3    1.000000
   2.09642000E+01    1.14660000E-01   4.02487000E-02 
   4.80331000E+00    9.19999000E-01   2.37594000E-01 
   1.45933000E+00   -3.03068000E-03   8.15854000E-01 
SP   1    1.000000
   4.83456000E-01    1.00000000E+00   1.00000000E+00 
SP   1    1.000000
   1.45585000E-01    1.00000000E+00   1.00000000E+00 
SP   1    1.000000
   4.38000000E-02    1.00000000E+00   1.00000000E+00 
SP   1    1.000000
   1.31927711E-02    1.00000000E+00   1.00000000E+00 
D    1    1.000000
   6.26000000E-01    1.00000000E+00 

6    0
S    3    1.000000
   3.38650000E+01    2.54938000E-02 
   5.09479000E+00    1.90373000E-01 
   1.15879000E+00    8.52161000E-01 
S    1    1.000000
   3.25840000E-01    1.00000000E+00 
S    1    1.000000
   1.02741000E-01    1.00000000E+00 
S    1    1.000000
   3.60000000E-02    1.00000000E+00 
P    1    1.000000
   7.50000000E-01    1.00000000E+00 

7    0
S    1    1.000000
   4.56324000E+03    1.96665000E-03 
S    1    1.000000
   6.82024000E+02    1.52306000E-02 
S    1    1.000000
   1.54973000E+02    7.61269000E-02 
S    1    1.000000
   4.44553000E+01    2.60801000E-01 
S    1    1.000000
   1.30290000E+01    6.16462000E-01 
S    1    1.000000
   1.82773000E+00    2.21006000E-01 
SP   3    1.000000
   2.09642000E+01    1.14660000E-01   4.02487000E-02 
   4.80331000E+00    9.19999000E-01   2.37594000E-01 
   1.45933000E+00   -3.03068000E-03   8.15854000E-01 
SP   1    1.000000
   4.83456000E-01    1.00000000E+00   1.00000000E+00 
SP   1    1.000000
   1.45585000E-01    1.00000000E+00   1.00000000E+00 
SP   1    1.000000
   4.38000000E-02    1.00000000E+00   1.00000000E+00 
SP   1    1.000000
   1.31927711E-02    1.00000000E+00   1.00000000E+00 
D    1    1.000000
   6.26000000E-01    1.00000000E+00 

8    0
S    3    1.000000
   3.38650000E+01    2.54938000E-02 
   5.09479000E+00    1.90373000E-01 
   1.15879000E+00    8.52161000E-01 
S    1    1.000000
   3.25840000E-01    1.00000000E+00 
S    1    1.000000
   1.02741000E-01    1.00000000E+00 
S    1    1.000000
   3.60000000E-02    1.00000000E+00 
P    1    1.000000
   7.50000000E-01    1.00000000E+00 

9    0
S    1    1.000000
   4.56324000E+03    1.96665000E-03 
S    1    1.000000
   6.82024000E+02    1.52306000E-02 
S    1    1.000000
   1.54973000E+02    7.61269000E-02 
S    1    1.000000
   4.44553000E+01    2.60801000E-01 
S    1    1.000000
   1.30290000E+01    6.16462000E-01 
S    1    1.000000
   1.82773000E+00    2.21006000E-01 
SP   3    1.000000
   2.09642000E+01    1.14660000E-01   4.02487000E-02 
   4.80331000E+00    9.19999000E-01   2.37594000E-01 
   1.45933000E+00   -3.03068000E-03   8.15854000E-01 
SP   1    1.000000
   4.83456000E-01    1.00000000E+00   1.00000000E+00 
SP   1    1.000000
   1.45585000E-01    1.00000000E+00   1.00000000E+00 
SP   1    1.000000
   4.38000000E-02    1.00000000E+00   1.00000000E+00 
SP   1    1.000000
   1.31927711E-02    1.00000000E+00   1.00000000E+00 
D    1    1.000000
   6.26000000E-01    1.00000000E+00 

10    0
S    3    1.000000
   3.38650000E+01    2.54938000E-02 
   5.09479000E+00    1.90373000E-01 
   1.15879000E+00    8.52161000E-01 
S    1    1.000000
   3.25840000E-01    1.00000000E+00 
S    1    1.000000
   1.02741000E-01    1.00000000E+00 
S    1    1.000000
   3.60000000E-02    1.00000000E+00 
P    1    1.000000
   7.50000000E-01    1.00000000E+00 

11    0
S    1    1.000000
   4.56324000E+03    1.96665000E-03 
S    1    1.000000
   6.82024000E+02    1.52306000E-02 
S    1    1.000000
   1.54973000E+02    7.61269000E-02 
S    1    1.000000
   4.44553000E+01    2.60801000E-01 
S    1    1.000000
   1.30290000E+01    6.16462000E-01 
S    1    1.000000
   1.82773000E+00    2.21006000E-01 
SP   3    1.000000
   2.09642000E+01    1.14660000E-01   4.02487000E-02 
   4.80331000E+00    9.19999000E-01   2.37594000E-01 
   1.45933000E+00   -3.03068000E-03   8.15854000E-01 
SP   1    1.000000
   4.83456000E-01    1.00000000E+00   1.00000000E+00 
SP   1    1.000000
   1.45585000E-01    1.00000000E+00   1.00000000E+00 
SP   1    1.000000
   4.38000000E-02    1.00000000E+00   1.00000000E+00 
SP   1    1.000000
   1.31927711E-02    1.00000000E+00   1.00000000E+00 
D    1    1.000000
   6.26000000E-01    1.00000000E+00 

12    0
S    3    1.000000
   3.38650000E+01    2.54938000E-02 
   5.09479000E+00    1.90373000E-01 
   1.15879000E+00    8.52161000E-01 
S    1    1.000000
   3.25840000E-01    1.00000000E+00 
S    1    1.000000
   1.02741000E-01    1.00000000E+00 
S    1    1.000000
   3.60000000E-02    1.00000000E+00 
P    1    1.000000
   7.50000000E-01    1.00000000E+00 

[MO]
Sym=X
Ene= 1.996084
Spin=Alpha
Occup=1
     1   -3.654650212948e-02
     2   -4.965520224190e-02
     3    7.334271789509e-03
     4    1.849797085101e-03
     5    8.518700030412e-03
     6    3.483951364349e-11
     7    2.705462673384e-16
     8    9.881669348728e-05
     9    7.478723349598e-04
    10    3.951247482593e-03
    11    1.298048328340e-02
    12    3.255327555803e-02
    13    1.099534241776e-02
    14    7.982274771574e-02
    15    3.734615895203e-03
    16   -2.410150866829e-10
    17    6.841478919011e-15
    18   -2.151114738764e-01
    19    9.825123423082e-03
    20   -6.023974852717e-10
    21    1.157916149703e-14
    22   -9.598608745977e-02
    23   -8.395854852944e-03
    24   -2.458419249614e-09
    25    9.019024684419e-15
    26   -2.878113116650e-03
    27   -7.101662430809e-03
    28    4.806950041906e-10
    29    2.573294515830e-14
    30   -5.882660413299e-06
    31    1.645957063061e-03
    32   -1.564173465911e-09
    33    1.470849675930e-13
    34    9.838219245426e-03
    35   -9.786445845254e-16
    36   -2.615986790576e-15
    37    3.495752192582e-03
    38    2.410018766667e-10
    39    9.881490752963e-05
    40    7.478588514374e-04
    41    3.951175815475e-03
    42    1.298024971386e-02
    43    3.255269428582e-02
    44    1.099512542197e-02
    45    7.982119111730e-02
    46    1.867587043330e-03
    47    3.235734944668e-03
    48    6.897154443627e-15
    49   -2.151070603770e-01
    50    4.912921556089e-03
    51    8.510904771041e-03
    52    9.800625180422e-15
    53   -9.598287507622e-02
    54   -4.197338826029e-03
    55   -7.269896861578e-03
    56    1.288547101585e-15
    57   -2.885300692899e-03
    58   -3.549178682927e-03
    59   -6.147292540670e-03
    60   -2.465893298692e-14
    61   -6.577066238278e-06
    62    8.229484619430e-04
    63    1.425527305681e-03
    64   -1.859504890630e-13
    65    9.838068593590e-03
    66   -1.501568364236e-15
    67   -4.673727738562e-16
    68   -1.747940224373e-03
    69    3.027645790339e-03
    70   -3.654453623635e-02
    71   -4.965227058984e-02
    72    7.334386819379e-03
    73    1.848371516591e-03
    74    4.259175076872e-03
    75    7.377131109651e-03
    76   -3.183515624151e-16
    77    9.881491508534e-05
    78    7.478589102415e-04
    79    3.951176103812e-03
    80    1.298025070615e-02
    81    3.255269651104e-02
    82    1.099512630649e-02
    83    7.982119366667e-02
    84   -1.867587431669e-03
    85    3.235735123800e-03
    86    1.228998832101e-14
    87   -2.151070538909e-01
    88   -4.912922469185e-03
    89    8.510905122836e-03
    90    7.285453434266e-15
    91   -9.598288495034e-02
    92    4.197335018440e-03
    93   -7.269895182813e-03
    94    1.854624670848e-14
    95   -2.885297664497e-03
    96    3.549180664434e-03
    97   -6.147296151391e-03
    98    1.733944859733e-14
    99   -6.576691056373e-06
   100   -8.229481829218e-04
   101    1.425523660828e-03
   102    1.432200975343e-13
   103    9.838068796465e-03
   104   -1.214571688080e-16
   105   -1.093713532308e-15
   106   -1.747940725639e-03
   107   -3.027646171778e-03
   108   -3.654453483478e-02
   109   -4.965226770986e-02
   110    7.334385654278e-03
   111    1.848376919175e-03
   112   -4.259174944686e-03
   113    7.377130947314e-03
   114    1.743689057307e-15
   115    9.881669349284e-05
   116    7.478723350033e-04
   117    3.951247482803e-03
   118    1.298048328413e-02
   119    3.255327555962e-02
   120    1.099534241819e-02
   121    7.982274771711e-02
   122   -3.734615895672e-03
   123    2.508156808643e-10
   124    9.616096425454e-15
   125   -2.151114738692e-01
   126   -9.825123423529e-03
   127    6.233355236107e-10
   128    1.612063394106e-14
   129   -9.598608745788e-02
   130    8.395854851526e-03
   131    2.469360416850e-09
   132    1.314038537185e-14
   133   -2.878113372778e-03
   134    7.101662404972e-03
   135   -7.316969776808e-10
   136   -3.964161384308e-14
   137   -5.882668396272e-06
   138   -1.645957065211e-03
   139    1.572498332701e-09
   140   -7.590200012859e-14
   141    9.838219245060e-03
   142    2.362401690342e-15
   143    1.261881179498e-15
   144    3.495752192935e-03
   145    2.452712976860e-10
   146   -3.654650212790e-02
   147   -4.965520224057e-02
   148    7.334271786674e-03
   149    1.849797053556e-03
   150   -8.518700029972e-03
   151   -3.249326587548e-11
   152   -1.861691474871e-15
   153    9.881490748763e-05
   154    7.478588511097e-04
   155    3.951175813909e-03
   156    1.298024970835e-02
   157    3.255269427407e-02
   158    1.099512541854e-02
   159    7.982119110884e-02
   160   -1.867587046309e-03
   161   -3.235734938325e-03
   162    9.997254428095e-15
   163   -2.151070604391e-01
   164   -4.912921564976e-03
   165   -8.510904761795e-03
   166    2.397142792254e-14
   167   -9.598287509870e-02
   168    4.197338822485e-03
   169    7.269896865390e-03
   170    5.307289829523e-15
   171   -2.885301216633e-03
   172    3.549178680756e-03
   173    6.147292538171e-03
   174    6.257656739276e-14
   175   -6.577085404464e-06
   176   -8.229484728712e-04
   177   -1.425527313207e-03
   178    3.015928959570e-14
   179    9.838068596829e-03
   180   -1.953147891887e-15
   181    7.862837092408e-16
   182   -1.747940225270e-03
   183    3.027645787081e-03
   184   -3.654453625057e-02
   185   -4.965227060378e-02
   186    7.334386813444e-03
   187    1.848371516263e-03
   188   -4.259175080075e-03
   189   -7.377131112344e-03
   190    1.242838806843e-15
   191    9.881491503807e-05
   192    7.478589098703e-04
   193    3.951176102025e-03
   194    1.298025069990e-02
   195    3.255269649763e-02
   196    1.099512630250e-02
   197    7.982119365680e-02
   198    1.867587433051e-03
   199   -3.235735118112e-03
   200    1.360598381461e-14
   201   -2.151070539592e-01
   202    4.912922474905e-03
   203   -8.510905115559e-03
   204    8.478809474113e-15
   205   -9.598288498233e-02
   206   -4.197335012093e-03
   207    7.269895183787e-03
   208    1.841802693330e-14
   209   -2.885297933024e-03
   210   -3.549180895465e-03
   211    6.147296047936e-03
   212   -5.701382915142e-14
   213   -6.576702360899e-06
   214    8.229481891189e-04
   215   -1.425523666918e-03
   216   -7.139438333376e-14
   217    9.838068800168e-03
   218   -4.998648832447e-15
   219   -8.503556010366e-16
   220   -1.747940726038e-03
   221   -3.027646168753e-03
   222   -3.654453485018e-02
   223   -4.965226772586e-02
   224    7.334385651369e-03
   225    1.848376954598e-03
   226    4.259174947717e-03
   227   -7.377130950738e-03
   228    1.402059876078e-15
Sym=X
Ene= 1.995600
Spin=Alpha
Occup=1
     1    8.222394206275e-02
     2    1.199424400697e-01
     3   -5.769957212253e-03
     4   -3.860023428141e-02
     5   -1.649054979728e-02
     6    4.008151479950e-10
     7    6.387222942543e-14
     8   -1.131521226491e-04
     9   -8.565369899062e-04
    10   -4.528992490768e-03
    11   -1.487331280540e-02
    12   -3.702068885893e-02
    13   -1.050573893928e-02
    14   -9.445575782060e-02
    15    4.968859328518e-02
    16   -1.470337091539e-09
    17    1.505052305550e-13
    18    2.531661818137e-01
    19    6.810611781990e-02
    20   -4.292449310235e-09
    21    3.727786797710e-13
    22    1.321895420227e-01
    23    4.450565118338e-02
    24   -1.774794442262e-09
    25   -3.077480234750e-13
    26    1.074739621330e-01
    27    5.675700816648e-02
    28   -7.181387848080e-08
    29    3.367108556034e-11
    30    5.176442156252e-03
    31   -5.415196939304e-03
    32   -5.418951499372e-10
    33   -5.914674500804e-11
    34   -1.054482733348e-02
    35    4.600975005488e-14
    36    8.196650444933e-16
    37   -1.965289758485e-03
    38    2.400079964024e-09
    39   -5.657521547389e-05
    40   -4.282621217445e-04
    41   -2.264462191256e-03
    42   -7.436545988283e-03
    43   -1.851007042496e-02
    44   -5.252779163492e-03
    45   -4.722709834947e-02
    46    3.526726278611e-02
    47    8.325003700989e-03
    48   -9.087029947235e-14
    49    1.265808161832e-01
    50    5.221731515814e-02
    51    9.171707773425e-03
    52   -2.675196270255e-13
    53    6.609228820965e-02
    54    1.942598228488e-02
    55    1.447901684026e-02
    56    3.917806502297e-13
    57    5.373712129794e-02
    58   -3.752305991779e-02
    59    5.443250185483e-02
    60   -3.367658351675e-11
    61    2.588231962841e-03
    62    2.489160416782e-03
    63   -4.563525269692e-03
    64    5.915394791262e-11
    65   -5.272360158617e-03
    66   -2.580597422833e-14
    67   -4.775777894648e-14
    68   -3.658203490241e-03
    69   -3.247125329670e-03
    70    4.111067822063e-02
    71    5.996926809107e-02
    72   -2.885349760960e-03
    73   -1.930017793391e-02
    74   -3.334467169788e-03
    75   -7.595465788365e-03
    76   -5.861429299691e-14
    77    5.657520240534e-05
    78    4.282620153969e-04
    79    2.264461727068e-03
    80    7.436544221402e-03
    81    1.851006688484e-02
    82    5.252778151759e-03
    83    4.722710405216e-02
    84    3.526725531547e-02
    85   -8.325015971497e-03
    86    1.625404766350e-13
    87   -1.265808825221e-01
    88    5.221730144930e-02
    89   -9.171728172760e-03
    90    3.820045083120e-13
    91   -6.609231107708e-02
    92    1.942597826874e-02
    93   -1.447902954000e-02
    94   -3.007408709157e-13
    95   -5.373689119827e-02
    96   -3.752312624747e-02
    97   -5.443253006145e-02
    98    3.368195063811e-11
    99   -2.588224765380e-03
   100    2.489159551565e-03
   101    4.563524390350e-03
   102   -5.913066937869e-11
   103    5.272361509449e-03
   104   -2.477645353094e-14
   105    3.862152373257e-14
   106    3.658201153800e-03
   107   -3.247122722051e-03
   108   -4.111069490205e-02
   109   -5.996928694235e-02
   110    2.885343357226e-03
   111    1.930016784003e-02
   112   -3.334468184678e-03
   113    7.595467278065e-03
   114    6.249339970141e-14
   115    1.131521226298e-04
   116    8.565369897566e-04
   117    4.528992490024e-03
   118    1.487331280285e-02
   119    3.702068885297e-02
   120    1.050573893738e-02
   121    9.445575781276e-02
   122    4.968859328458e-02
   123   -1.468357666686e-09
   124   -9.600574922101e-14
   125   -2.531661818159e-01
   126    6.810611781861e-02
   127   -4.280495511418e-09
   128   -2.735224157759e-13
   129   -1.321895420333e-01
   130    4.450565118355e-02
   131   -1.806587513005e-09
   132    3.815912067654e-13
   133   -1.074739619129e-01
   134    5.675700812153e-02
   135   -7.216601366116e-08
   136   -3.367476592649e-11
   137   -5.176442145323e-03
   138   -5.415196878801e-03
   139   -6.002197076291e-10
   140    5.911050066455e-11
   141    1.054482733354e-02
   142    5.507399804128e-14
   143    6.644630072166e-16
   144    1.965289758767e-03
   145   -2.399981338829e-09
   146   -8.222394206207e-02
   147   -1.199424400679e-01
   148    5.769957211489e-03
   149    3.860023421963e-02
   150   -1.649054979755e-02
   151    4.000696750934e-10
   152   -5.917697882543e-14
   153    5.657521528786e-05
   154    4.282621202983e-04
   155    2.264462184072e-03
   156    7.436545963563e-03
   157    1.851007036702e-02
   158    5.252779142547e-03
   159    4.722709827590e-02
   160    3.526726279174e-02
   161    8.325003711924e-03
   162    1.492714134771e-13
   163   -1.265808162143e-01
   164    5.221731516657e-02
   165    9.171707796264e-03
   166    3.686272429947e-13
   167   -6.609228822641e-02
   168    1.942598232430e-02
   169    1.447901685777e-02
   170   -3.135467897188e-13
   171   -5.373712104994e-02
   172   -3.752305942915e-02
   173    5.443250176957e-02
   174    3.367590857876e-11
   175   -2.588231937114e-03
   176    2.489160366843e-03
   177   -4.563525211490e-03
   178   -5.910466132520e-11
   179    5.272360160358e-03
   180   -2.794335663837e-14
   181   -3.926946019039e-14
   182    3.658203491927e-03
   183    3.247125325604e-03
   184   -4.111067823634e-02
   185   -5.996926809964e-02
   186    2.885349781968e-03
   187    1.930017805993e-02
   188   -3.334467169370e-03
   189   -7.595465787796e-03
   190    6.486816441676e-14
   191   -5.657520230952e-05
   192   -4.282620146592e-04
   193   -2.264461723383e-03
   194   -7.436544208756e-03
   195   -1.851006685509e-02
   196   -5.252778140403e-03
   197   -4.722710401530e-02
   198    3.526725532122e-02
   199   -8.325015981639e-03
   200   -1.060993853917e-13
   201    1.265808825399e-01
   202    5.221730145865e-02
   203   -9.171728194543e-03
   204   -2.902537450221e-13
   205    6.609231110000e-02
   206    1.942597831052e-02
   207   -1.447902955712e-02
   208    3.599553795345e-13
   209    5.373689067148e-02
   210   -3.752312588800e-02
   211   -5.443252996663e-02
   212   -3.365222264830e-11
   213    2.588224724227e-03
   214    2.489159627432e-03
   215    4.563524338905e-03
   216    5.911769478278e-11
   217   -5.272361511003e-03
   218   -2.581586012820e-14
   219    4.568220271879e-14
   220   -3.658201155435e-03
   221    3.247122718641e-03
   222    4.111069491393e-02
   223    5.996928694363e-02
   224   -2.885343370125e-03
   225   -1.930016784932e-02
   226   -3.334468184206e-03
   227    7.595467277121e-03
   228   -5.813548372665e-14
Sym=X
Ene= 1.995600
Spin=Alpha
Occup=1
     1    1.121424788232e-08
     2    1.814244576076e-08
     3   -1.949983781115e-09
     4   -1.182806614407e-08
     5   -2.644994051883e-09
     6    1.050782118305e-03
     7   -7.486137030864e-14
     8   -1.739744714038e-11
     9   -1.314315950318e-10
    10   -6.970898742686e-10
    11   -2.281488942778e-09
    12   -5.756205222909e-09
    13   -2.171036479576e-09
    14   -1.440404228031e-08
    15    5.104337453044e-09
    16    3.046089295097e-02
    17   -1.509642118860e-13
    18    4.153707733575e-08
    19    6.329118779649e-09
    20    4.692216195083e-02
    21   -3.961234517728e-13
    22    1.342582639440e-08
    23    3.390291069594e-09
    24    1.106658653020e-02
    25    4.434532120933e-13
    26   -1.323199977650e-07
    27    1.273953554219e-08
    28   -6.894969587962e-02
    29   -4.069055416265e-11
    30   -4.130712044628e-09
    31    2.221573108258e-09
    32    5.123911982040e-03
    33    7.202609627640e-11
    34    1.887727385443e-11
    35   -6.145616038046e-14
    36    1.825338864895e-15
    37    5.795766708522e-10
    38   -5.532941818700e-03
    39   -9.799213681377e-05
    40   -7.417792110320e-04
    41   -3.922203457614e-03
    42   -1.288060528472e-02
    43   -3.206070517928e-02
    44   -9.098136610300e-03
    45   -8.180066854914e-02
    46    8.325680070895e-03
    47    4.488110752611e-02
    48    1.523194134902e-13
    49    2.192471568190e-01
    50    9.172681710461e-03
    51    6.280926723839e-02
    52    4.035638627714e-13
    53    1.144780308250e-01
    54    1.447942936677e-02
    55    3.614550000359e-02
    56   -4.267547417134e-13
    57    9.307508909512e-02
    58    5.443258465579e-02
    59    2.533019387478e-02
    60    4.062028133243e-11
    61    4.482929313255e-03
    62   -4.563542176344e-03
    63   -2.780396940501e-03
    64   -7.193968313717e-11
    65   -9.132061824546e-03
    66    3.160697534285e-14
    67    5.587270811459e-14
    68    3.246914076135e-03
    69   -9.091684738921e-05
    70    7.120726503237e-02
    71    1.038720380580e-01
    72   -4.997130156700e-03
    73   -3.342876430463e-02
    74   -7.595563354450e-03
    75   -1.210513102587e-02
    76    7.669795115528e-14
    77   -9.799219425083e-05
    78   -7.417796580750e-04
    79   -3.922205655394e-03
    80   -1.288061290702e-02
    81   -3.206072289364e-02
    82   -9.098143463032e-03
    83   -8.180068688732e-02
    84   -8.325671428630e-03
    85    4.488110966226e-02
    86   -1.565625924054e-13
    87    2.192471226009e-01
    88   -9.172662983758e-03
    89    6.280926962037e-02
    90   -4.011219984587e-13
    91    1.144780253904e-01
    92   -1.447941586086e-02
    93    3.614549857843e-02
    94    4.140554671881e-13
    95    9.307523934419e-02
    96   -5.443249105983e-02
    97    2.533029330718e-02
    98   -4.057390369879e-11
    99    4.482933924149e-03
   100    4.563541475793e-03
   101   -2.780392360292e-03
   102    7.186936240037e-11
   103   -9.132059291498e-03
   104    3.152937131182e-14
   105   -5.220077843210e-14
   106    3.246918784452e-03
   107    9.091508981610e-05
   108    7.120725881989e-02
   109    1.038720414720e-01
   110   -4.997144124867e-03
   111   -3.342880363439e-02
   112    7.595564071288e-03
   113   -1.210513279811e-02
   114   -7.538974203632e-14
   115    1.791662281853e-11
   116    1.354593304493e-10
   117    7.171136649545e-10
   118    2.350360740841e-09
   119    5.917387149558e-09
   120    2.227194759723e-09
   121    1.461171548115e-08
   122    5.091385083992e-09
   123    3.046089295119e-02
   124    1.462252155715e-13
   125   -4.145748643667e-08
   126    6.306362833133e-09
   127    4.692216195194e-02
   128    3.848776725557e-13
   129   -1.344385406328e-08
   130    3.353380279803e-09
   131    1.106658651514e-02
   132   -4.285700651405e-13
   133    1.326443172193e-07
   134    1.265733309619e-08
   135   -6.894969511082e-02
   136    4.060418800634e-11
   137    4.145427701650e-09
   138    2.350042759009e-09
   139    5.123911916172e-03
   140   -7.191393534421e-11
   141   -2.197903195747e-11
   142   -6.197304087609e-14
   143   -4.182596850235e-16
   144   -5.743196020249e-10
   145    5.532941818620e-03
   146   -1.118707976233e-08
   147   -1.811982778934e-08
   148    1.977901317689e-09
   149    1.175607195216e-08
   150   -2.644586276794e-09
   151    1.050782118562e-03
   152    7.427365992771e-14
   153    9.799213710251e-05
   154    7.417792132736e-04
   155    3.922203468754e-03
   156    1.288060532306e-02
   157    3.206070526878e-02
   158    9.098136640502e-03
   159    8.180066866446e-02
   160    8.325680069885e-03
   161    4.488110752904e-02
   162   -1.561400093561e-13
   163   -2.192471567714e-01
   164    9.172681709258e-03
   165    6.280926725010e-02
   166   -3.955067311881e-13
   167   -1.144780307725e-01
   168    1.447942936564e-02
   169    3.614550000303e-02
   170    4.275063027748e-13
   171   -9.307508967960e-02
   172    5.443258398353e-02
   173    2.533019408281e-02
   174   -4.068112797192e-11
   175   -4.482929363935e-03
   176   -4.563542326046e-03
   177   -2.780396862960e-03
   178    7.199491599385e-11
   179    9.132061824451e-03
   180    2.927069158064e-14
   181    4.889470452520e-14
   182   -3.246914075720e-03
   183    9.091684665353e-05
   184   -7.120726502739e-02
   185   -1.038720380445e-01
   186    4.997130113942e-03
   187    3.342876422869e-02
   188   -7.595563352564e-03
   189   -1.210513102308e-02
   190   -7.261843338672e-14
   191    9.799219450801e-05
   192    7.417796600635e-04
   193    3.922205665279e-03
   194    1.288061294105e-02
   195    3.206072297303e-02
   196    9.098143489443e-03
   197    8.180068699050e-02
   198   -8.325671429801e-03
   199    4.488110966846e-02
   200    1.440192919916e-13
   201   -2.192471225630e-01
   202   -9.172662987626e-03
   203    6.280926963664e-02
   204    3.868192190316e-13
   205   -1.144780253528e-01
   206   -1.447941584781e-02
   207    3.614549860908e-02
   208   -4.490960408157e-13
   209   -9.307523907017e-02
   210   -5.443249197822e-02
   211    2.533029304653e-02
   212    4.072241989946e-11
   213   -4.482933885456e-03
   214    4.563541590508e-03
   215   -2.780392435061e-03
   216   -7.206886247913e-11
   217    9.132059291460e-03
   218    2.946087911973e-14
   219   -5.302779022880e-14
   220   -3.246918783688e-03
   221   -9.091508826767e-05
   222   -7.120725881793e-02
   223   -1.038720414636e-01
   224    4.997144141704e-03
   225    3.342880376532e-02
   226    7.595564069512e-03
   227   -1.210513279587e-02
   228    7.364178586656e-14
Sym=X
Ene= 1.994715
Spin=Alpha
Occup=1
     1    1.017064769661e-01
     2    1.515472787370e-01
     3    8.840398470192e-03
     4   -6.799453296068e-02
     5   -1.655776409367e-02
     6    9.004317531043e-10
     7   -7.204748056541e-15
     8   -8.619015356126e-05
     9   -6.510041442274e-04
    10   -3.462751887499e-03
    11   -1.131707110736e-02
    12   -2.821371107616e-02
    13   -7.226341647475e-03
    14   -7.642986811626e-02
    15    7.599295859461e-02
    16    1.510911641162e-08
    17   -9.561341711393e-14
    18    2.182119453891e-01
    19    1.080033199284e-01
    20    2.398876522315e-08
    21   -1.695255391848e-13
    22    1.513675661135e-01
    23    7.168530626751e-02
    24    2.074435100699e-09
    25   -1.041071977222e-13
    26   -3.377573632221e-01
    27    1.600189710551e-01
    28    1.212264301456e-08
    29   -7.358362614628e-14
    30   -3.266701177411e-02
    31    4.149595638945e-03
    32   -1.773331060958e-08
    33   -1.362892933124e-12
    34   -7.526787977240e-03
    35    1.911629563164e-14
    36    1.033134771191e-15
    37    1.364037104873e-02
    38   -2.309032415890e-09
    39    4.309720658857e-05
    40    3.255181937936e-04
    41    1.731461134705e-03
    42    5.658815819636e-03
    43    1.410756045358e-02
    44    3.613384091044e-03
    45    3.821665647481e-02
    46    4.510020312395e-03
    47   -4.647710693619e-02
    48   -1.007205880609e-13
    49   -1.091106569500e-01
    50    9.097355990349e-03
    51   -6.760607636351e-02
    52   -1.701587241975e-13
    53   -7.568548475575e-02
    54   -1.975973125598e-02
    55   -2.997861399059e-02
    56   -1.392524015407e-13
    57    1.688784346548e-01
    58   -3.820739500086e-02
    59   -7.032828438593e-02
    60    2.085975386828e-14
    61    1.633347518377e-02