[Molden Format]
[Atoms] (Angs)
  H      1    1      2.47503475      0.00000000     -0.00000000
  C      2    6      1.39359294      0.00000000     -0.00000000
  C      3    6      0.69679647      1.20688689      0.00000000
  H      4    1      1.23751738      2.14344297      0.00000000
  C      5    6     -0.69679647      1.20688689      0.00000000
  H      6    1     -1.23751738      2.14344297      0.00000000
  C      7    6     -1.39359294     -0.00000000      0.00000000
  H      8    1     -2.47503475     -0.00000000      0.00000000
  C      9    6     -0.69679647     -1.20688689     -0.00000000
  H     10    1     -1.23751738     -2.14344297     -0.00000000
  C     11    6      0.69679647     -1.20688689     -0.00000000
  H     12    1      1.23751738     -2.14344297     -0.00000000
[GTO]
1    0
S    3    1.000000
   3.38650000E+01    2.54938000E-02 
   5.09479000E+00    1.90373000E-01 
   1.15879000E+00    8.52161000E-01 
S    1    1.000000
   3.25840000E-01    1.00000000E+00 
S    1    1.000000
   1.02741000E-01    1.00000000E+00 
S    1    1.000000
   3.60000000E-02    1.00000000E+00 
P    1    1.000000
   7.50000000E-01    1.00000000E+00 

2    0
S    1    1.000000
   4.56324000E+03    1.96665000E-03 
S    1    1.000000
   6.82024000E+02    1.52306000E-02 
S    1    1.000000
   1.54973000E+02    7.61269000E-02 
S    1    1.000000
   4.44553000E+01    2.60801000E-01 
S    1    1.000000
   1.30290000E+01    6.16462000E-01 
S    1    1.000000
   1.82773000E+00    2.21006000E-01 
SP   3    1.000000
   2.09642000E+01    1.14660000E-01   4.02487000E-02 
   4.80331000E+00    9.19999000E-01   2.37594000E-01 
   1.45933000E+00   -3.03068000E-03   8.15854000E-01 
SP   1    1.000000
   4.83456000E-01    1.00000000E+00   1.00000000E+00 
SP   1    1.000000
   1.45585000E-01    1.00000000E+00   1.00000000E+00 
SP   1    1.000000
   4.38000000E-02    1.00000000E+00   1.00000000E+00 
SP   1    1.000000
   1.31927711E-02    1.00000000E+00   1.00000000E+00 
D    1    1.000000
   6.26000000E-01    1.00000000E+00 

3    0
S    1    1.000000
   4.56324000E+03    1.96665000E-03 
S    1    1.000000
   6.82024000E+02    1.52306000E-02 
S    1    1.000000
   1.54973000E+02    7.61269000E-02 
S    1    1.000000
   4.44553000E+01    2.60801000E-01 
S    1    1.000000
   1.30290000E+01    6.16462000E-01 
S    1    1.000000
   1.82773000E+00    2.21006000E-01 
SP   3    1.000000
   2.09642000E+01    1.14660000E-01   4.02487000E-02 
   4.80331000E+00    9.19999000E-01   2.37594000E-01 
   1.45933000E+00   -3.03068000E-03   8.15854000E-01 
SP   1    1.000000
   4.83456000E-01    1.00000000E+00   1.00000000E+00 
SP   1    1.000000
   1.45585000E-01    1.00000000E+00   1.00000000E+00 
SP   1    1.000000
   4.38000000E-02    1.00000000E+00   1.00000000E+00 
SP   1    1.000000
   1.31927711E-02    1.00000000E+00   1.00000000E+00 
D    1    1.000000
   6.26000000E-01    1.00000000E+00 

4    0
S    3    1.000000
   3.38650000E+01    2.54938000E-02 
   5.09479000E+00    1.90373000E-01 
   1.15879000E+00    8.52161000E-01 
S    1    1.000000
   3.25840000E-01    1.00000000E+00 
S    1    1.000000
   1.02741000E-01    1.00000000E+00 
S    1    1.000000
   3.60000000E-02    1.00000000E+00 
P    1    1.000000
   7.50000000E-01    1.00000000E+00 

5    0
S    1    1.000000
   4.56324000E+03    1.96665000E-03 
S    1    1.000000
   6.82024000E+02    1.52306000E-02 
S    1    1.000000
   1.54973000E+02    7.61269000E-02 
S    1    1.000000
   4.44553000E+01    2.60801000E-01 
S    1    1.000000
   1.30290000E+01    6.16462000E-01 
S    1    1.000000
   1.82773000E+00    2.21006000E-01 
SP   3    1.000000
   2.09642000E+01    1.14660000E-01   4.02487000E-02 
   4.80331000E+00    9.19999000E-01   2.37594000E-01 
   1.45933000E+00   -3.03068000E-03   8.15854000E-01 
SP   1    1.000000
   4.83456000E-01    1.00000000E+00   1.00000000E+00 
SP   1    1.000000
   1.45585000E-01    1.00000000E+00   1.00000000E+00 
SP   1    1.000000
   4.38000000E-02    1.00000000E+00   1.00000000E+00 
SP   1    1.000000
   1.31927711E-02    1.00000000E+00   1.00000000E+00 
D    1    1.000000
   6.26000000E-01    1.00000000E+00 

6    0
S    3    1.000000
   3.38650000E+01    2.54938000E-02 
   5.09479000E+00    1.90373000E-01 
   1.15879000E+00    8.52161000E-01 
S    1    1.000000
   3.25840000E-01    1.00000000E+00 
S    1    1.000000
   1.02741000E-01    1.00000000E+00 
S    1    1.000000
   3.60000000E-02    1.00000000E+00 
P    1    1.000000
   7.50000000E-01    1.00000000E+00 

7    0
S    1    1.000000
   4.56324000E+03    1.96665000E-03 
S    1    1.000000
   6.82024000E+02    1.52306000E-02 
S    1    1.000000
   1.54973000E+02    7.61269000E-02 
S    1    1.000000
   4.44553000E+01    2.60801000E-01 
S    1    1.000000
   1.30290000E+01    6.16462000E-01 
S    1    1.000000
   1.82773000E+00    2.21006000E-01 
SP   3    1.000000
   2.09642000E+01    1.14660000E-01   4.02487000E-02 
   4.80331000E+00    9.19999000E-01   2.37594000E-01 
   1.45933000E+00   -3.03068000E-03   8.15854000E-01 
SP   1    1.000000
   4.83456000E-01    1.00000000E+00   1.00000000E+00 
SP   1    1.000000
   1.45585000E-01    1.00000000E+00   1.00000000E+00 
SP   1    1.000000
   4.38000000E-02    1.00000000E+00   1.00000000E+00 
SP   1    1.000000
   1.31927711E-02    1.00000000E+00   1.00000000E+00 
D    1    1.000000
   6.26000000E-01    1.00000000E+00 

8    0
S    3    1.000000
   3.38650000E+01    2.54938000E-02 
   5.09479000E+00    1.90373000E-01 
   1.15879000E+00    8.52161000E-01 
S    1    1.000000
   3.25840000E-01    1.00000000E+00 
S    1    1.000000
   1.02741000E-01    1.00000000E+00 
S    1    1.000000
   3.60000000E-02    1.00000000E+00 
P    1    1.000000
   7.50000000E-01    1.00000000E+00 

9    0
S    1    1.000000
   4.56324000E+03    1.96665000E-03 
S    1    1.000000
   6.82024000E+02    1.52306000E-02 
S    1    1.000000
   1.54973000E+02    7.61269000E-02 
S    1    1.000000
   4.44553000E+01    2.60801000E-01 
S    1    1.000000
   1.30290000E+01    6.16462000E-01 
S    1    1.000000
   1.82773000E+00    2.21006000E-01 
SP   3    1.000000
   2.09642000E+01    1.14660000E-01   4.02487000E-02 
   4.80331000E+00    9.19999000E-01   2.37594000E-01 
   1.45933000E+00   -3.03068000E-03   8.15854000E-01 
SP   1    1.000000
   4.83456000E-01    1.00000000E+00   1.00000000E+00 
SP   1    1.000000
   1.45585000E-01    1.00000000E+00   1.00000000E+00 
SP   1    1.000000
   4.38000000E-02    1.00000000E+00   1.00000000E+00 
SP   1    1.000000
   1.31927711E-02    1.00000000E+00   1.00000000E+00 
D    1    1.000000
   6.26000000E-01    1.00000000E+00 

10    0
S    3    1.000000
   3.38650000E+01    2.54938000E-02 
   5.09479000E+00    1.90373000E-01 
   1.15879000E+00    8.52161000E-01 
S    1    1.000000
   3.25840000E-01    1.00000000E+00 
S    1    1.000000
   1.02741000E-01    1.00000000E+00 
S    1    1.000000
   3.60000000E-02    1.00000000E+00 
P    1    1.000000
   7.50000000E-01    1.00000000E+00 

11    0
S    1    1.000000
   4.56324000E+03    1.96665000E-03 
S    1    1.000000
   6.82024000E+02    1.52306000E-02 
S    1    1.000000
   1.54973000E+02    7.61269000E-02 
S    1    1.000000
   4.44553000E+01    2.60801000E-01 
S    1    1.000000
   1.30290000E+01    6.16462000E-01 
S    1    1.000000
   1.82773000E+00    2.21006000E-01 
SP   3    1.000000
   2.09642000E+01    1.14660000E-01   4.02487000E-02 
   4.80331000E+00    9.19999000E-01   2.37594000E-01 
   1.45933000E+00   -3.03068000E-03   8.15854000E-01 
SP   1    1.000000
   4.83456000E-01    1.00000000E+00   1.00000000E+00 
SP   1    1.000000
   1.45585000E-01    1.00000000E+00   1.00000000E+00 
SP   1    1.000000
   4.38000000E-02    1.00000000E+00   1.00000000E+00 
SP   1    1.000000
   1.31927711E-02    1.00000000E+00   1.00000000E+00 
D    1    1.000000
   6.26000000E-01    1.00000000E+00 

12    0
S    3    1.000000
   3.38650000E+01    2.54938000E-02 
   5.09479000E+00    1.90373000E-01 
   1.15879000E+00    8.52161000E-01 
S    1    1.000000
   3.25840000E-01    1.00000000E+00 
S    1    1.000000
   1.02741000E-01    1.00000000E+00 
S    1    1.000000
   3.60000000E-02    1.00000000E+00 
P    1    1.000000
   7.50000000E-01    1.00000000E+00 

[MO]
Sym=X
Ene= 2.000021
Spin=Alpha
Occup=1
     1   -3.704239542753e-04
     2   -6.865621173024e-04
     3   -5.096904011525e-05
     4    3.658345559894e-04
     5   -1.181651807983e-04
     6   -7.657334654982e-12
     7    4.411058448892e-16
     8    7.845383744296e-04
     9    6.073647124839e-03
    10    3.029772013621e-02
    11    1.040242953434e-01
    12    2.457229114617e-01
    13    8.996844620633e-02
    14    3.290786430326e-01
    15   -7.565070739726e-04
    16   -4.915603417440e-12
    17    3.974983776771e-15
    18    5.641867717627e-04
    19   -7.899585969502e-04
    20   -1.766637367199e-10
    21   -2.025613676158e-15
    22    2.179311240779e-05
    23   -9.588498485983e-04
    24   -5.077449032164e-12
    25    1.149809273081e-14
    26    1.640265071015e-03
    27   -9.566303093174e-04
    28    1.032285007003e-10
    29   -2.500759639167e-14
    30    1.657740067606e-04
    31    5.894400096791e-05
    32    3.310199191197e-11
    33   -2.248377978443e-13
    34   -4.456901623308e-05
    35   -3.171800295144e-16
    36   -9.529766877053e-16
    37   -1.130970773109e-04
    38    4.963567269702e-11
    39   -7.267721883130e-06
    40   -5.635635912534e-05
    41   -2.806145639050e-04
    42   -9.692547265857e-04
    43   -2.291188278827e-03
    44   -8.806996922921e-04
    45   -3.008701906728e-03
    46    1.318243682207e-04
    47   -2.021159690255e-04
    48   -1.830182344348e-15
    49    1.816047643215e-04
    50    2.246534392718e-04
    51   -5.876969401723e-04
    52    2.852779098611e-15
    53   -4.123417400737e-04
    54    1.429267034414e-04
    55    1.560068905198e-04
    56   -7.231725821329e-15
    57   -5.989625505702e-04
    58    3.444710250836e-04
    59    4.128330279340e-04
    60    1.166632122154e-14
    61   -8.322328119907e-05
    62   -6.212126931402e-05
    63    3.916043156452e-05
    64    2.563165396820e-13
    65   -2.026765457357e-05
    66    5.482098291397e-16
    67   -6.308792149731e-16
    68   -1.468221995819e-04
    69   -1.596390987708e-04
    70   -2.985206197409e-05
    71    4.472471674183e-05
    72   -1.711095328487e-04
    73   -3.142712806368e-04
    74    8.630530023259e-06
    75   -5.234101916218e-05
    76    1.039392258461e-17
    77   -7.267585885526e-06
    78   -5.635530626172e-05
    79   -2.806093119799e-04
    80   -9.692366934378e-04
    81   -2.291145680087e-03
    82   -8.806841212793e-04
    83   -3.008644894143e-03
    84   -1.318244301464e-04
    85   -2.021159826984e-04
    86   -1.057605597599e-16
    87    1.816049885693e-04
    88   -2.246535278861e-04
    89   -5.876969485017e-04
    90   -4.593666087291e-16
    91   -4.123413992450e-04
    92   -1.429264952638e-04
    93    1.560068276774e-04
    94   -4.345177572915e-15
    95   -5.989617245653e-04
    96   -3.444710885835e-04
    97    4.128321590756e-04
    98    7.757230196939e-15
    99   -8.322318186952e-05
   100    6.212126414197e-05
   101    3.916047753694e-05
   102   -2.926244604108e-13
   103   -2.026767660409e-05
   104    5.884953470113e-18
   105    4.574478919089e-16
   106   -1.468222217648e-04
   107    1.596391121028e-04
   108   -2.985201094755e-05
   109    4.472474197329e-05
   110   -1.711093441654e-04
   111   -3.142709888291e-04
   112   -8.630521953523e-06
   113   -5.234105167614e-05
   114   -1.142949209432e-16
   115    7.845383679850e-04
   116    6.073647074943e-03
   117    3.029771988732e-02
   118    1.040242944889e-01
   119    2.457229094431e-01
   120    8.996844546888e-02
   121    3.290786403294e-01
   122    7.565070749926e-04
   123   -2.466839514554e-12
   124    9.660004304177e-16
   125    5.641867652970e-04
   126    7.899585968101e-04
   127    1.076260349497e-10
   128    2.745558757751e-15
   129    2.179309047351e-05
   130    9.588498369335e-04
   131    5.125761330886e-11
   132    1.086375644601e-15
   133    1.640265072123e-03
   134    9.566303071004e-04
   135   -1.609651167150e-10
   136   -1.558284421285e-15
   137    1.657740068444e-04
   138   -5.894400056348e-05
   139   -2.817985226295e-11
   140    2.855081983106e-13
   141   -4.456901538992e-05
   142    5.968979649400e-16
   143    1.264398935338e-15
   144   -1.130970777459e-04
   145    1.008387224328e-11
   146   -3.704239562498e-04
   147   -6.865621206321e-04
   148   -5.096904300829e-05
   149    3.658345545714e-04
   150    1.181651790321e-04
   151    1.547958364770e-12
   152   -6.954643856556e-17
   153   -7.267664659788e-06
   154   -5.635591612972e-05
   155   -2.806123540372e-04
   156   -9.692471394574e-04
   157   -2.291170354367e-03
   158   -8.806931434471e-04
   159   -3.008677915443e-03
   160   -1.318243654584e-04
   161    2.021159659657e-04
   162    2.665072180646e-15
   163    1.816048547884e-04
   164   -2.246534003285e-04
   165    5.876969340594e-04
   166    3.957427548675e-15
   167   -4.123416625674e-04
   168   -1.429267124876e-04
   169   -1.560068575954e-04
   170    7.936502495238e-15
   171   -5.989626323569e-04
   172   -3.444710037009e-04
   173   -4.128330487258e-04
   174   -1.356692292718e-14
   175   -8.322328519883e-05
   176    6.212126410100e-05
   177   -3.916043527155e-05
   178   -2.510269105534e-13
   179   -2.026766398116e-05
   180    1.325442123816e-15
   181   -2.362922536522e-16
   182   -1.468221764673e-04
   183   -1.596390968897e-04
   184   -2.985204079529e-05
   185    4.472474307983e-05
   186   -1.711095355751e-04
   187   -3.142712901695e-04
   188   -8.630517235304e-06
   189    5.234103479307e-05
   190    3.421036596482e-16
   191   -7.267534937767e-06
   192   -5.635491183780e-05
   193   -2.806073444025e-04
   194   -9.692299382267e-04
   195   -2.291129720501e-03
   196   -8.806782902686e-04
   197   -3.008623535431e-03
   198    1.318244266822e-04
   199    2.021159814891e-04
   200    3.916047022149e-15
   201    1.816050756602e-04
   202    2.246534916466e-04
   203    5.876969458216e-04
   204    5.923216717640e-15
   205   -4.123413596235e-04
   206    1.429265129092e-04
   207   -1.560068149786e-04
   208   -3.069776027655e-15
   209   -5.989618036175e-04
   210    3.444710692405e-04
   211   -4.128321830114e-04
   212    2.310621343585e-14
   213   -8.322318591218e-05
   214   -6.212125934209e-05
   215   -3.916048161865e-05
   216    2.234885514059e-13
   217   -2.026768537703e-05
   218    4.995032806395e-16
   219    1.580974728350e-16
   220   -1.468221996010e-04
   221    1.596391133210e-04
   222   -2.985199147258e-05
   223    4.472476426549e-05
   224   -1.711093530836e-04
   225   -3.142710005567e-04
   226    8.630510068346e-06
   227    5.234106648197e-05
   228    2.091218588968e-16
Sym=X
Ene= 1.999927
Spin=Alpha
Occup=1
     1    2.423075180166e-04
     2    4.879573260106e-04
     3   -1.215936671635e-04
     4   -7.811230554995e-05
     5    1.283118555534e-04
     6    6.104996332079e-12
     7    1.228968243883e-15
     8   -7.843902137126e-04
     9   -6.072470321403e-03
    10   -3.029186307600e-02
    11   -1.040036780144e-01
    12   -2.456888672604e-01
    13   -9.002219273739e-02
    14   -3.288876853361e-01
    15    7.172490683818e-04
    16   -4.003141812514e-11
    17    1.829741136826e-14
    18   -8.333038760387e-04
    19    6.345270726950e-04
    20    7.095307783344e-11
    21    3.746085025833e-14
    22   -1.197983428530e-03
    23    1.264052076714e-03
    24    1.057508546650e-11
    25    2.533572722096e-14
    26    1.417644384032e-03
    27    2.813024720947e-04
    28    3.239184596732e-10
    29    8.166703030673e-14
    30    5.174015011476e-05
    31   -5.937724855706e-05
    32    1.553121630834e-11
    33   -1.261518478324e-12
    34    6.006251901338e-05
    35   -1.191783931988e-15
    36   -4.549170747902e-16
    37    7.292420546782e-05
    38   -9.346096378316e-12
    39    1.246977220376e-06
    40    9.718555248250e-06
    41    4.824245454502e-05
    42    1.680271290634e-04
    43    3.826068842418e-04
    44    1.270774943222e-04
    45    6.397336666928e-04
    46   -3.806561475995e-05
    47    1.728442364714e-04
    48    9.189602816265e-15
    49   -5.148014680223e-04
    50   -4.402184520964e-04
    51    5.222862814847e-04
    52    8.167345279244e-15
    53    5.226828396959e-04
    54    6.835390725824e-05
    55   -5.444192709085e-04
    56    2.522683309690e-14
    57    6.016721191118e-04
    58   -6.551426463368e-04
    59    2.943223472975e-04
    60   -8.639811965694e-14
    61    2.747282936688e-05
    62    1.509625880050e-05
    63   -1.114127640273e-05
    64    1.291150808389e-12
    65    2.929345067157e-05
    66    3.888560285271e-15
    67   -2.982440737645e-15
    68    2.760042227787e-04
    69    2.356795977766e-04
    70   -2.975019865852e-05
    71    1.603309477946e-06
    72    1.541060689154e-04
    73    4.283055405991e-05
    74   -3.046530912733e-05
    75    5.435015030446e-05
    76    2.045042697358e-16
    77   -1.246992457892e-06
    78   -9.718673200627e-06
    79   -4.824304297523e-05
    80   -1.680291493271e-04
    81   -3.826116578352e-04
    82   -1.270792422727e-04
    83   -6.397400549845e-04
    84   -3.806566100666e-05
    85   -1.728442671390e-04
    86   -1.994776988308e-14
    87    5.148014821670e-04
    88   -4.402185143540e-04
    89   -5.222862901430e-04
    90   -2.585899305240e-14
    91   -5.226829701076e-04
    92    6.835390081822e-05
    93    5.444192400978e-04
    94   -3.737838835175e-14
    95   -6.016730688657e-04
    96   -6.551423125005e-04
    97   -2.943223135288e-04
    98    8.338533951996e-14
    99   -2.747284943785e-05
   100    1.509629386418e-05
   101    1.114126177052e-05
   102   -1.294151837015e-12
   103   -2.929344736414e-05
   104    1.800140421682e-15
   105    2.780585209611e-15
   106   -2.760042216646e-04
   107    2.356796013082e-04
   108    2.975017182065e-05
   109   -1.603295398891e-06
   110   -1.541059283386e-04
   111   -4.283048644378e-05
   112   -3.046529722145e-05
   113   -5.435016686486e-05
   114   -1.242408405062e-15
   115    7.843902202276e-04
   116    6.072470371822e-03
   117    3.029186332755e-02
   118    1.040036788781e-01
   119    2.456888693005e-01
   120    9.002219348154e-02
   121    3.288876880676e-01
   122    7.172490681009e-04
   123   -5.158220193221e-11
   124   -2.314160944855e-14
   125    8.333038896575e-04
   126    6.345270768645e-04
   127    3.160298653380e-11
   128   -4.110719617923e-14
   129    1.197983431622e-03
   130    1.264052077122e-03
   131    2.416569807246e-11
   132   -3.140741762774e-14
   133   -1.417644391211e-03
   134    2.813024702073e-04
   135    2.927427885374e-10
   136   -7.544428447146e-14
   137   -5.174015096503e-05
   138   -5.937725008950e-05
   139    2.872519709090e-11
   140    1.257956434358e-12
   141   -6.006252012226e-05
   142   -2.147394082068e-15
   143   -5.944552346309e-16
   144   -7.292420726217e-05
   145   -1.198428803016e-11
   146   -2.423075154700e-04
   147   -4.879573222844e-04
   148    1.215936649855e-04
   149    7.811230526813e-05
   150    1.283118582560e-04
   151    3.297838816331e-12
   152   -1.309255458060e-15
   153   -1.246921181389e-06
   154   -9.718121401843e-06
   155   -4.824029039543e-05
   156   -1.680196985578e-04
   157   -3.825893322320e-04
   158   -1.270710833710e-04
   159   -6.397101625583e-04
   160   -3.806562355665e-05
   161    1.728442331757e-04
   162   -1.319617117341e-14
   163    5.148015386224e-04
   164   -4.402184705454e-04
   165    5.222862909624e-04
   166   -1.751285246709e-14
   167   -5.226827734884e-04
   168    6.835392608591e-05
   169   -5.444192502113e-04
   170   -1.969380531189e-14
   171   -6.016721990274e-04
   172   -6.551426490344e-04
   173    2.943223283157e-04
   174    5.619259287727e-14
   175   -2.747283544697e-05
   176    1.509625923493e-05
   177   -1.114129170672e-05
   178   -1.231725099095e-12
   179   -2.929345825357e-05
   180    3.144819143489e-15
   181   -3.609028423342e-15
   182   -2.760042326270e-04
   183   -2.356796032268e-04
   184    2.975021785313e-05
   185   -1.603287243159e-06
   186   -1.541060672487e-04
   187   -4.283056289865e-05
   188   -3.046530270052e-05
   189    5.435016434329e-05
   190   -1.767925061714e-15
   191    1.246943219529e-06
   192    9.718292021371e-06
   193    4.824114152247e-05
   194    1.680226207661e-04
   195    3.825962363795e-04
   196    1.270736073114e-04
   197    6.397194029643e-04
   198   -3.806566940301e-05
   199   -1.728442633415e-04
   200    1.468302698654e-14
   201   -5.148015321403e-04
   202   -4.402185352836e-04
   203   -5.222862909788e-04
   204    2.056661157443e-14
   205    5.226829024834e-04
   206    6.835392009177e-05
   207    5.444192171565e-04
   208    2.703454705606e-14
   209    6.016731608006e-04
   210   -6.551423141571e-04
   211   -2.943222926519e-04
   212   -6.056421218475e-14
   213    2.747285575166e-05
   214    1.509629238148e-05
   215    1.114127654987e-05
   216    1.238874568848e-12
   217    2.929345355395e-05
   218    2.882943464213e-15
   219    3.315666316977e-15
   220    2.760042324061e-04
   221   -2.356796027814e-04
   222   -2.975018780190e-05
   223    1.603278761830e-06
   224    1.541059220273e-04
   225    4.283049525451e-05
   226   -3.046529260802e-05
   227   -5.435017743750e-05
   228    1.354528859299e-15
Sym=X
Ene= 1.998791
Spin=Alpha
Occup=1
     1    1.190931366474e-01
     2    1.774926376739e-01
     3    1.623236810626e-02
     4   -4.689038225488e-02
     5   -1.963414583622e-02
     6    5.615057752503e-10
     7   -5.610637971731e-15
     8   -1.171616879967e-04
     9   -8.852030623156e-04
    10   -4.687921905299e-03
    11   -1.529318236031e-02
    12   -3.809989891759e-02
    13   -1.837907819603e-02
    14   -9.688899801013e-02
    15    7.510642648179e-02
    16    1.129557023259e-08
    17   -8.828935117426e-14
    18    2.608474611115e-01
    19    1.128893292705e-01
    20    1.797365546612e-08
    21   -1.529384020727e-13
    22    1.859476261650e-01
    23    8.223655261381e-02
    24    7.622141511943e-09
    25   -9.501088512540e-14
    26   -2.554315373864e-01
    27    1.226547331239e-01
    28    3.474564829609e-10
    29    2.515828614441e-15
    30   -2.524607865336e-02
    31    2.608053146394e-03
    32    4.458570339156e-09
    33    8.375937460837e-15
    34   -9.652384524335e-03
    35    1.791636218289e-14
    36    5.016471991111e-16
    37    8.497911554644e-03
    38   -1.638257475125e-09
    39   -1.569411220573e-05
    40   -1.186503858183e-04
    41   -6.271176182359e-04
    42   -2.062539105663e-03
    43   -5.289463612572e-03
    44   -2.107581054815e-03
    45   -1.189137020084e-02
    46    1.129982948511e-02
    47   -1.649942357410e-02
    48   -9.227995113075e-14
    49    3.144702312155e-02
    50    1.679009639906e-02
    51   -2.625983795164e-02
    52   -1.566647412662e-13
    53   -2.118694974754e-03
    54   -8.832097356434e-03
    55   -4.546295106726e-03
    56   -1.212166539423e-13
    57    1.239308352409e-01
    58   -2.858875369927e-02
    59   -5.201535317070e-02
    60   -1.191258306794e-15
    61    1.153532873944e-02
    62    1.044424337306e-03
    63   -3.410793539929e-03
    64    5.542332466486e-14
    65   -1.907439021715e-03
    66    1.330193115335e-14
    67    1.104730734983e-14
    68    2.871392654696e-03
    69   -8.366477659769e-03
    70   -5.200813159536e-03
    71   -1.165511191823e-02
    72   -6.886789025411e-03
    73    3.038466531825e-02
    74   -3.158574412348e-04
    75   -9.696191000911e-04
    76   -6.667272773011e-15
    77   -1.569409498821e-05
    78   -1.186502557102e-04
    79   -6.271169285513e-04
    80   -2.062536854521e-03
    81   -5.289458016085e-03
    82   -2.107578512968e-03
    83   -1.189135562285e-02
    84   -1.129981898983e-02
    85   -1.649941904501e-02
    86   -1.149514924151e-13
    87    3.144698268285e-02
    88   -1.679007975873e-02
    89   -2.625983105433e-02
    90   -2.012839171424e-13
    91   -2.118724469246e-03
    92    8.832101153526e-03
    93   -4.546291167140e-03
    94   -1.438814081061e-13
    95    1.239309138579e-01
    96    2.858877503549e-02
    97   -5.201538191017e-02
    98   -4.111360199810e-15
    99    1.153533652442e-02
   100   -1.044421739835e-03
   101   -3.410788969289e-03
   102   -5.600766326828e-14
   103   -1.907437774434e-03
   104   -4.879288285186e-15
   105    2.077005234827e-14
   106    2.871393543303e-03
   107    8.366475635314e-03
   108   -5.200821583341e-03
   109   -1.165512299643e-02
   110   -6.886787509867e-03
   111    3.038469069631e-02
   112    3.158569038705e-04
   113   -9.696170968121e-04
   114   -9.989125559479e-15
   115   -1.171616880278e-04
   116   -8.852030625557e-04
   117   -4.687921906508e-03
   118   -1.529318236443e-02
   119   -3.809989892740e-02
   120   -1.837907819980e-02
   121   -9.688899802457e-02
   122   -7.510642648404e-02
   123   -1.132149804385e-08
   124   -1.338910209355e-13
   125    2.608474611187e-01
   126   -1.128893292739e-01
   127   -1.801736126069e-08
   128   -2.260817469341e-13
   129    1.859476261722e-01
   130   -8.223655261560e-02
   131   -7.647323625029e-09
   132   -1.872883496638e-13
   133   -2.554315368779e-01
   134   -1.226547330832e-01
   135    3.252260069735e-10
   136   -1.573570809753e-14
   137   -2.524607863623e-02
   138   -2.608053142838e-03
   139   -4.447631995720e-09
   140    4.375581930606e-14
   141   -9.652384524604e-03
   142   -2.198265252843e-14
   143    3.883291910057e-15
   144    8.497911555156e-03
   145   -1.640392261758e-09
   146    1.190931366510e-01
   147    1.774926376790e-01
   148    1.623236810938e-02
   149   -4.689038220606e-02
   150    1.963414583682e-02
   151   -5.617489184240e-10
   152   -1.076630157223e-14
   153   -1.569411197591e-05
   154   -1.186503840375e-04
   155   -6.271176094012e-04
   156   -2.062539075187e-03
   157   -5.289463541052e-03
   158   -2.107581029575e-03
   159   -1.189137011317e-02
   160   -1.129982951109e-02
   161    1.649942357023e-02
   162   -1.309495954715e-13
   163    3.144702317050e-02
   164   -1.679009643739e-02
   165    2.625983794749e-02
   166   -2.233886817131e-13
   167   -2.118694954262e-03
   168    8.832097331907e-03
   169    4.546295092017e-03
   170   -1.714728234130e-13
   171    1.239308365665e-01
   172    2.858875360388e-02
   173    5.201535317935e-02
   174   -1.367307765415e-15
   175    1.153532877452e-02
   176   -1.044424342760e-03
   177    3.410793531838e-03
   178    8.419559045171e-15
   179   -1.907439022866e-03
   180   -6.470170382450e-15
   181   -1.937384961252e-14
   182    2.871392654146e-03
   183   -8.366477662370e-03
   184   -5.200813137105e-03
   185   -1.165511188092e-02
   186   -6.886789050530e-03
   187    3.038466528609e-02
   188    3.158574423613e-04
   189    9.696191048224e-04
   190   -1.104979976047e-14
   191   -1.569409478171e-05
   192   -1.186502541143e-04
   193   -6.271169206261e-04
   194   -2.062536827207e-03
   195   -5.289457951930e-03
   196   -2.107578490328e-03
   197   -1.189135554470e-02
   198    1.129981901487e-02
   199    1.649941904066e-02
   200   -1.025485153812e-13
   201    3.144698272850e-02
   202    1.679007979613e-02
   203    2.625983104934e-02
   204   -1.824337470644e-13
   205   -2.118724441411e-03
   206   -8.832101135804e-03
   207    4.546291156292e-03
   208   -1.428789074164e-13
   209    1.239309146451e-01
   210   -2.858877453541e-02
   211    5.201538220496e-02
   212   -6.465312276355e-15
   213    1.153533653978e-02
   214    1.044421751584e-03
   215    3.410788980761e-03
   216   -1.619646762574e-14
   217   -1.907437775455e-03
   218    1.352012803560e-14
   219   -1.327838216573e-14
   220    2.871393542816e-03
   221    8.366475637572e-03
   222   -5.200821561335e-03
   223   -1.165512295969e-02
   224   -6.886787517468e-03
   225    3.038469071623e-02
   226   -3.158569048583e-04
   227    9.696171013517e-04
   228   -7.504193817813e-15
Sym=X
Ene= 1.998759
Spin=Alpha
Occup=1
     1   -1.176747326959e-01
     2   -1.773971355025e-01
     3   -1.630591116690e-02
     4    3.266607008671e-02
     5    1.934306767683e-02
     6   -5.771957485857e-10
     7    6.898258443277e-15
     8    1.178176102496e-04
     9    8.907524905085e-04
    10    4.711657934127e-03
    11    1.538794921270e-02
    12    3.818940797960e-02
    13    1.761891770799e-02
    14    9.726641074785e-02
    15   -7.525001828587e-02
    16   -3.921233860504e-09
    17    2.871964292021e-15
    18   -2.562147795122e-01
    19   -1.136604313503e-01
    20   -5.805253219140e-09
    21    1.841775679500e-14
    22   -1.911007740820e-01
    23   -6.989465746915e-02
    24   -9.979718245648e-10
    25   -9.195382853326e-14
    26   -9.869096933082e-02
    27   -5.414248601613e-02
    28   -2.853892819080e-08
    29    4.690072015894e-12
    30   -4.488630001837e-03
    31    6.069568244128e-03
    32   -1.387092881133e-09
    33   -8.932940071739e-12
    34    9.805162228907e-03
    35    1.067449900442e-14
    36   -5.788648317274e-16
    37   -9.062195920131e-03
    38   -3.048046865314e-10
    39    1.734178124969e-05
    40    1.312336568127e-04
    41    6.935465815307e-04
    42    2.284232941252e-03
    43    5.802869891637e-03
    44    2.226025360296e-03
    45    1.367297994920e-02
    46   -1.548115314056e-02
    47    1.298700643248e-02
    48   -4.604797781571e-14
    49   -3.576191250007e-02
    50   -2.249290255458e-02
    51    2.030214560299e-02
    52   -9.743957876950e-14
    53    1.907450029269e-02
    54   -8.377856718343e-03
    55   -1.321576014385e-03
    56    4.134168264544e-14
    57   -5.051051589790e-02
    58    3.654301411552e-02
    59   -4.650648870005e-02
    60   -4.691457265258e-12
    61   -2.548843119848e-03