[Molden Format]
[Atoms] (Angs)
  H      1    1      2.47503475      0.00000000     -0.00000000
  C      2    6      1.39359294      0.00000000     -0.00000000
  C      3    6      0.69679647      1.20688689      0.00000000
  H      4    1      1.23751738      2.14344297      0.00000000
  C      5    6     -0.69679647      1.20688689      0.00000000
  H      6    1     -1.23751738      2.14344297      0.00000000
  C      7    6     -1.39359294     -0.00000000      0.00000000
  H      8    1     -2.47503475     -0.00000000      0.00000000
  C      9    6     -0.69679647     -1.20688689     -0.00000000
  H     10    1     -1.23751738     -2.14344297     -0.00000000
  C     11    6      0.69679647     -1.20688689     -0.00000000
  H     12    1      1.23751738     -2.14344297     -0.00000000
[GTO]
1    0
S    3    1.000000
   3.38650000E+01    2.54938000E-02 
   5.09479000E+00    1.90373000E-01 
   1.15879000E+00    8.52161000E-01 
S    1    1.000000
   3.25840000E-01    1.00000000E+00 
S    1    1.000000
   1.02741000E-01    1.00000000E+00 
S    1    1.000000
   3.60000000E-02    1.00000000E+00 
P    1    1.000000
   7.50000000E-01    1.00000000E+00 

2    0
S    1    1.000000
   4.56324000E+03    1.96665000E-03 
S    1    1.000000
   6.82024000E+02    1.52306000E-02 
S    1    1.000000
   1.54973000E+02    7.61269000E-02 
S    1    1.000000
   4.44553000E+01    2.60801000E-01 
S    1    1.000000
   1.30290000E+01    6.16462000E-01 
S    1    1.000000
   1.82773000E+00    2.21006000E-01 
SP   3    1.000000
   2.09642000E+01    1.14660000E-01   4.02487000E-02 
   4.80331000E+00    9.19999000E-01   2.37594000E-01 
   1.45933000E+00   -3.03068000E-03   8.15854000E-01 
SP   1    1.000000
   4.83456000E-01    1.00000000E+00   1.00000000E+00 
SP   1    1.000000
   1.45585000E-01    1.00000000E+00   1.00000000E+00 
SP   1    1.000000
   4.38000000E-02    1.00000000E+00   1.00000000E+00 
SP   1    1.000000
   1.31927711E-02    1.00000000E+00   1.00000000E+00 
D    1    1.000000
   6.26000000E-01    1.00000000E+00 

3    0
S    1    1.000000
   4.56324000E+03    1.96665000E-03 
S    1    1.000000
   6.82024000E+02    1.52306000E-02 
S    1    1.000000
   1.54973000E+02    7.61269000E-02 
S    1    1.000000
   4.44553000E+01    2.60801000E-01 
S    1    1.000000
   1.30290000E+01    6.16462000E-01 
S    1    1.000000
   1.82773000E+00    2.21006000E-01 
SP   3    1.000000
   2.09642000E+01    1.14660000E-01   4.02487000E-02 
   4.80331000E+00    9.19999000E-01   2.37594000E-01 
   1.45933000E+00   -3.03068000E-03   8.15854000E-01 
SP   1    1.000000
   4.83456000E-01    1.00000000E+00   1.00000000E+00 
SP   1    1.000000
   1.45585000E-01    1.00000000E+00   1.00000000E+00 
SP   1    1.000000
   4.38000000E-02    1.00000000E+00   1.00000000E+00 
SP   1    1.000000
   1.31927711E-02    1.00000000E+00   1.00000000E+00 
D    1    1.000000
   6.26000000E-01    1.00000000E+00 

4    0
S    3    1.000000
   3.38650000E+01    2.54938000E-02 
   5.09479000E+00    1.90373000E-01 
   1.15879000E+00    8.52161000E-01 
S    1    1.000000
   3.25840000E-01    1.00000000E+00 
S    1    1.000000
   1.02741000E-01    1.00000000E+00 
S    1    1.000000
   3.60000000E-02    1.00000000E+00 
P    1    1.000000
   7.50000000E-01    1.00000000E+00 

5    0
S    1    1.000000
   4.56324000E+03    1.96665000E-03 
S    1    1.000000
   6.82024000E+02    1.52306000E-02 
S    1    1.000000
   1.54973000E+02    7.61269000E-02 
S    1    1.000000
   4.44553000E+01    2.60801000E-01 
S    1    1.000000
   1.30290000E+01    6.16462000E-01 
S    1    1.000000
   1.82773000E+00    2.21006000E-01 
SP   3    1.000000
   2.09642000E+01    1.14660000E-01   4.02487000E-02 
   4.80331000E+00    9.19999000E-01   2.37594000E-01 
   1.45933000E+00   -3.03068000E-03   8.15854000E-01 
SP   1    1.000000
   4.83456000E-01    1.00000000E+00   1.00000000E+00 
SP   1    1.000000
   1.45585000E-01    1.00000000E+00   1.00000000E+00 
SP   1    1.000000
   4.38000000E-02    1.00000000E+00   1.00000000E+00 
SP   1    1.000000
   1.31927711E-02    1.00000000E+00   1.00000000E+00 
D    1    1.000000
   6.26000000E-01    1.00000000E+00 

6    0
S    3    1.000000
   3.38650000E+01    2.54938000E-02 
   5.09479000E+00    1.90373000E-01 
   1.15879000E+00    8.52161000E-01 
S    1    1.000000
   3.25840000E-01    1.00000000E+00 
S    1    1.000000
   1.02741000E-01    1.00000000E+00 
S    1    1.000000
   3.60000000E-02    1.00000000E+00 
P    1    1.000000
   7.50000000E-01    1.00000000E+00 

7    0
S    1    1.000000
   4.56324000E+03    1.96665000E-03 
S    1    1.000000
   6.82024000E+02    1.52306000E-02 
S    1    1.000000
   1.54973000E+02    7.61269000E-02 
S    1    1.000000
   4.44553000E+01    2.60801000E-01 
S    1    1.000000
   1.30290000E+01    6.16462000E-01 
S    1    1.000000
   1.82773000E+00    2.21006000E-01 
SP   3    1.000000
   2.09642000E+01    1.14660000E-01   4.02487000E-02 
   4.80331000E+00    9.19999000E-01   2.37594000E-01 
   1.45933000E+00   -3.03068000E-03   8.15854000E-01 
SP   1    1.000000
   4.83456000E-01    1.00000000E+00   1.00000000E+00 
SP   1    1.000000
   1.45585000E-01    1.00000000E+00   1.00000000E+00 
SP   1    1.000000
   4.38000000E-02    1.00000000E+00   1.00000000E+00 
SP   1    1.000000
   1.31927711E-02    1.00000000E+00   1.00000000E+00 
D    1    1.000000
   6.26000000E-01    1.00000000E+00 

8    0
S    3    1.000000
   3.38650000E+01    2.54938000E-02 
   5.09479000E+00    1.90373000E-01 
   1.15879000E+00    8.52161000E-01 
S    1    1.000000
   3.25840000E-01    1.00000000E+00 
S    1    1.000000
   1.02741000E-01    1.00000000E+00 
S    1    1.000000
   3.60000000E-02    1.00000000E+00 
P    1    1.000000
   7.50000000E-01    1.00000000E+00 

9    0
S    1    1.000000
   4.56324000E+03    1.96665000E-03 
S    1    1.000000
   6.82024000E+02    1.52306000E-02 
S    1    1.000000
   1.54973000E+02    7.61269000E-02 
S    1    1.000000
   4.44553000E+01    2.60801000E-01 
S    1    1.000000
   1.30290000E+01    6.16462000E-01 
S    1    1.000000
   1.82773000E+00    2.21006000E-01 
SP   3    1.000000
   2.09642000E+01    1.14660000E-01   4.02487000E-02 
   4.80331000E+00    9.19999000E-01   2.37594000E-01 
   1.45933000E+00   -3.03068000E-03   8.15854000E-01 
SP   1    1.000000
   4.83456000E-01    1.00000000E+00   1.00000000E+00 
SP   1    1.000000
   1.45585000E-01    1.00000000E+00   1.00000000E+00 
SP   1    1.000000
   4.38000000E-02    1.00000000E+00   1.00000000E+00 
SP   1    1.000000
   1.31927711E-02    1.00000000E+00   1.00000000E+00 
D    1    1.000000
   6.26000000E-01    1.00000000E+00 

10    0
S    3    1.000000
   3.38650000E+01    2.54938000E-02 
   5.09479000E+00    1.90373000E-01 
   1.15879000E+00    8.52161000E-01 
S    1    1.000000
   3.25840000E-01    1.00000000E+00 
S    1    1.000000
   1.02741000E-01    1.00000000E+00 
S    1    1.000000
   3.60000000E-02    1.00000000E+00 
P    1    1.000000
   7.50000000E-01    1.00000000E+00 

11    0
S    1    1.000000
   4.56324000E+03    1.96665000E-03 
S    1    1.000000
   6.82024000E+02    1.52306000E-02 
S    1    1.000000
   1.54973000E+02    7.61269000E-02 
S    1    1.000000
   4.44553000E+01    2.60801000E-01 
S    1    1.000000
   1.30290000E+01    6.16462000E-01 
S    1    1.000000
   1.82773000E+00    2.21006000E-01 
SP   3    1.000000
   2.09642000E+01    1.14660000E-01   4.02487000E-02 
   4.80331000E+00    9.19999000E-01   2.37594000E-01 
   1.45933000E+00   -3.03068000E-03   8.15854000E-01 
SP   1    1.000000
   4.83456000E-01    1.00000000E+00   1.00000000E+00 
SP   1    1.000000
   1.45585000E-01    1.00000000E+00   1.00000000E+00 
SP   1    1.000000
   4.38000000E-02    1.00000000E+00   1.00000000E+00 
SP   1    1.000000
   1.31927711E-02    1.00000000E+00   1.00000000E+00 
D    1    1.000000
   6.26000000E-01    1.00000000E+00 

12    0
S    3    1.000000
   3.38650000E+01    2.54938000E-02 
   5.09479000E+00    1.90373000E-01 
   1.15879000E+00    8.52161000E-01 
S    1    1.000000
   3.25840000E-01    1.00000000E+00 
S    1    1.000000
   1.02741000E-01    1.00000000E+00 
S    1    1.000000
   3.60000000E-02    1.00000000E+00 
P    1    1.000000
   7.50000000E-01    1.00000000E+00 

[MO]
Sym=X
Ene= 1.997539
Spin=Alpha
Occup=1
     1   -1.370040299919e-10
     2   -1.280515351871e-09
     3    5.678789761821e-10
     4    2.857930485666e-09
     5    3.686139862039e-10
     6   -6.600906073485e-04
     7    5.523112971466e-14
     8    1.478841690974e-12
     9    1.100034371817e-11
    10    5.983167497601e-11
    11    1.903806250453e-10
    12    5.248357593214e-10
    13    5.270208519503e-10
    14    1.209724639507e-09
    15    1.224318853207e-09
    16   -2.228390515248e-02
    17    1.152603669568e-13
    18   -5.564830456924e-09
    19    2.249004115265e-09
    20   -3.390287718704e-02
    21    2.971862791959e-13
    22    6.120411191004e-09
    23    1.156413073178e-09
    24   -4.355825498100e-03
    25   -3.229012092182e-13
    26    9.995392591422e-08
    27   -1.724172411318e-09
    28    6.968410338959e-02
    29    2.992687526955e-11
    30    3.360631316720e-09
    31   -2.096196509425e-09
    32   -5.017897098637e-03
    33   -5.297980833693e-11
    34   -1.471762862933e-09
    35    4.460089410674e-14
    36   -1.747856296979e-15
    37   -9.314815313612e-10
    38    4.882816789629e-03
    39    9.561244967389e-05
    40    7.229584800880e-04
    41    3.827571326851e-03
    42    1.252414441076e-02
    43    3.119607279245e-02
    44    1.175301289296e-02
    45    7.983058933965e-02
    46    7.110077225828e-04
    47   -4.715451410262e-02
    48   -1.117656735568e-13
    49   -2.158436716794e-01
    50    3.595486466650e-03
    51   -6.864467634398e-02
    52   -2.995134411199e-13
    53   -1.185132266355e-01
    54   -9.806874554007e-03
    55   -3.880338675663e-02
    56    3.199715587821e-13
    57   -9.414051756011e-02
    58   -5.687523404105e-02
    59   -2.693043446501e-02
    60   -2.990691495039e-11
    61   -4.673995369918e-03
    62    5.645140040700e-03
    63    2.708199470960e-03
    64    5.293519621459e-11
    65    8.992359422998e-03
    66   -2.261640240723e-14
    67   -4.261455674382e-14
    68   -4.337338592287e-03
    69   -6.948863515359e-04
    70   -7.126947303262e-02
    71   -1.044551831059e-01
    72    5.543506713325e-03
    73    3.538315088913e-02
    74    7.832023440030e-03
    75    1.184583868446e-02
    76   -5.726022347010e-14
    77    9.561253351799e-05
    78    7.229591288964e-04
    79    3.827574566709e-03
    80    1.252415552077e-02
    81    3.119609903045e-02
    82    1.175302249096e-02
    83    7.983062521521e-02
    84   -7.110068449341e-04
    85   -4.715451829664e-02
    86    1.143243286745e-13
    87   -2.158436729267e-01
    88   -3.595489193738e-03
    89   -6.864468206103e-02
    90    2.944821329349e-13
    91   -1.185132401677e-01
    92    9.806865715801e-03
    93   -3.880339256234e-02
    94   -3.116030056478e-13
    95   -9.414062933759e-02
    96    5.687516344285e-02
    97   -2.693051272755e-02
    98    2.987164872308e-11
    99   -4.673999033930e-03
   100   -5.645138963152e-03
   101    2.708197774812e-03
   102   -5.287767236178e-11
   103    8.992359342952e-03
   104   -2.356011749273e-14
   105    3.817096138454e-14
   106   -4.337341500722e-03
   107    6.948873427773e-04
   108   -7.126947788949e-02
   109   -1.044551978290e-01
   110    5.543516070020e-03
   111    3.538318126959e-02
   112   -7.832023887568e-03
   113    1.184584151886e-02
   114    5.573994620103e-14
   115   -2.067533666669e-12
   116   -1.556911012029e-11
   117   -8.252247725630e-11
   118   -2.685304409580e-10
   119   -7.079958761009e-10
   120   -5.918558638647e-10
   121   -1.439748566258e-09
   122    1.227332694147e-09
   123   -2.228390515259e-02
   124   -1.031511107953e-13
   125    5.455010956469e-09
   126    2.254077964065e-09
   127   -3.390287718763e-02
   128   -2.764910724535e-13
   129   -6.122641201183e-09
   130    1.182291372158e-09
   131   -4.355825490057e-03
   132    3.158356405235e-13
   133   -1.002570721954e-07
   134   -1.692602324401e-09
   135    6.968410284211e-02
   136   -2.985381351197e-11
   137   -3.377583028921e-09
   138   -2.188547986350e-09
   139   -5.017897047699e-03
   140    5.288576417162e-11
   141    1.476559820557e-09
   142    4.612662449395e-14
   143   -9.145454012990e-17
   144    9.313661007672e-10
   145   -4.882816789593e-03
   146    1.126219813680e-10
   147    1.258092373088e-09
   148   -5.845877223527e-10
   149   -2.820089931369e-09
   150    3.660978592094e-10
   151   -6.600906074825e-04
   152   -5.442125894802e-14
   153   -9.561244996568e-05
   154   -7.229584823602e-04
   155   -3.827571338044e-03
   156   -1.252414444959e-02
   157   -3.119607288256e-02
   158   -1.175301292313e-02
   159   -7.983058943753e-02
   160    7.110077201482e-04
   161   -4.715451409257e-02
   162    1.198976817164e-13
   163    2.158436715330e-01
   164    3.595486461363e-03
   165   -6.864467633643e-02
   166    2.990951617978e-13
   167    1.185132265358e-01
   168   -9.806874547870e-03
   169   -3.880338674475e-02
   170   -3.105365420366e-13
   171    9.414051801518e-02
   172   -5.687523355392e-02
   173   -2.693043459745e-02
   174    2.994287996324e-11
   175    4.673995409952e-03
   176    5.645140145430e-03
   177    2.708199412699e-03
   178   -5.296500571550e-11
   179   -8.992359418207e-03
   180   -2.153579420544e-14
   181   -3.410270548141e-14
   182    4.337338590280e-03
   183    6.948863519325e-04
   184    7.126947300028e-02
   185    1.044551830568e-01
   186   -5.543506680997e-03
   187   -3.538315082804e-02
   188    7.832023435540e-03
   189    1.184583867744e-02
   190    5.331289193101e-14
   191   -9.561253377300e-05
   192   -7.229591308750e-04
   193   -3.827574576447e-03
   194   -1.252415555458e-02
   195   -3.119609910880e-02
   196   -1.175302251676e-02
   197   -7.983062529894e-02
   198   -7.110068403050e-04
   199   -4.715451829008e-02
   200   -1.012445610582e-13
   201    2.158436727904e-01
   202   -3.595489184063e-03
   203   -6.864468205854e-02
   204   -2.782862195581e-13
   205    1.185132400825e-01
   206    9.806865704531e-03
   207   -3.880339257145e-02
   208    3.436852053511e-13
   209    9.414062917493e-02
   210    5.687516409171e-02
   211   -2.693051252547e-02
   212   -2.998221457500e-11
   213    4.673999009258e-03
   214   -5.645139043461e-03
   215    2.708197831350e-03
   216    5.303330973033e-11
   217   -8.992359338307e-03
   218   -2.224799031694e-14
   219    3.961183529033e-14
   220    4.337341498358e-03
   221   -6.948873440332e-04
   222    7.126947786113e-02
   223    1.044551977864e-01
   224   -5.543516078992e-03
   225   -3.538318135766e-02
   226   -7.832023883335e-03
   227    1.184584151243e-02
   228   -5.386243184459e-14
Sym=X
Ene= 1.997530
Spin=Alpha
Occup=1
     1    2.415957700113e-03
     2    7.844308481683e-03
     3    5.299450313134e-03
     4   -3.496408223986e-02
     5    1.313262436949e-03
     6    3.906323469678e-10
     7   -1.737345688204e-15
     8    3.196031839617e-05
     9    2.410445857296e-04
    10    1.284369874717e-03
    11    4.208010701339e-03
    12    1.083433614107e-02
    13    3.061537411322e-03
    14    2.668205506788e-02
    15    1.959665203531e-02
    16    7.317450427853e-09
    17   -1.263326226347e-14
    18   -7.634586551957e-02
    19    3.015914342125e-02
    20    1.142177660555e-08
    21   -2.926160048435e-14
    22   -6.067145544500e-03
    23    5.721461472072e-03
    24    2.404340666759e-09
    25   -1.098944208533e-14
    26   -1.755192273657e-01
    27    7.535763431444e-02
    28   -4.183872836961e-09
    29    2.340651800510e-15
    30   -1.656514355342e-02
    31    1.432609154669e-03
    32   -6.212502099509e-09
    33   -3.900447014923e-13
    34    4.628824678104e-03
    35    3.505764239569e-15
    36   -2.387495837490e-15
    37    7.442781706559e-03
    38   -9.688830426699e-10
    39    1.023787804671e-04
    40    7.733894111051e-04
    41    4.100622992578e-03
    42    1.339825280105e-02
    43    3.359665921347e-02
    44    1.375194065036e-02
    45    8.512664046894e-02
    46    1.076838999743e-02
    47   -3.020335115121e-02
    48   -2.568615065346e-14
    49   -2.361934503397e-01
    50    1.867504094452e-02
    51   -4.174722665371e-02
    52   -4.569627223877e-14
    53   -1.279692321524e-01
    54   -6.797468918848e-03
    55   -2.589361240220e-02
    56   -4.322010664873e-14
    57    8.731111357670e-02
    58   -2.146787141349e-02
    59   -3.967165111833e-02
    60   -1.748222191346e-14
    61    8.803222583760e-03
    62    3.863732458580e-03
    63   -6.262547720578e-04
    64    3.877853400076e-13
    65    9.858648850454e-03
    66    3.523473475240e-15
    67    1.435305007257e-15
    68   -4.013837601375e-03
    69   -5.437137943672e-04
    70   -6.021442582898e-02
    71   -8.530981311373e-02
    72    4.913134745175e-03
    73    1.562062810186e-02
    74    6.893119976134e-03
    75    1.038759614155e-02
    76   -3.027376310226e-15
    77    1.023788949475e-04
    78    7.733902955638e-04
    79    4.100627427149e-03
    80    1.339826795391e-02
    81    3.359669509912e-02
    82    1.375195413905e-02
    83    8.512669280934e-02
    84   -1.076838326807e-02
    85   -3.020334788259e-02
    86   -3.197867283806e-14
    87   -2.361934709057e-01
    88   -1.867503050933e-02
    89   -4.174722187737e-02
    90   -6.818047852925e-14
    91   -1.279692656168e-01
    92    6.797464799040e-03
    93   -2.589360701749e-02
    94   -3.636499092646e-14
    95    8.731111392181e-02
    96    2.146787118547e-02
    97   -3.967163666479e-02
    98    1.610154681174e-14
    99    8.803221660506e-03
   100   -3.863735781921e-03
   101   -6.262610287535e-04
   102   -4.456582575533e-13
   103    9.858649761406e-03
   104   -2.876395892001e-15
   105    4.531614197243e-15
   106   -4.013837274234e-03
   107    5.437121418456e-04
   108   -6.021443046070e-02
   109   -8.530981855108e-02
   110    4.913132287590e-03
   111    1.562060036833e-02
   112   -6.893120129020e-03
   113    1.038759726524e-02
   114   -2.298998847987e-15
   115    3.196031848531e-05
   116    2.410445864200e-04
   117    1.284369878154e-03
   118    4.208010713158e-03
   119    1.083433616888e-02
   120    3.061537421352e-03
   121    2.668205510423e-02
   122   -1.959665203571e-02
   123   -7.313591954294e-09
   124   -2.944844912808e-14
   125   -7.634586551303e-02
   126   -3.015914342234e-02
   127   -1.141562362446e-08
   128   -5.195671493991e-14
   129   -6.067145544984e-03
   130   -5.721461473852e-03
   131   -2.372094122776e-09
   132   -4.909416979641e-14
   133   -1.755192287235e-01
   134   -7.535763438579e-02
   135    2.574378616793e-09
   136   -3.402129212888e-14
   137   -1.656514359090e-02
   138   -1.432609154313e-03
   139    6.190529747062e-09
   140    4.933909197693e-13
   141    4.628824677784e-03
   142   -4.551800670939e-15
   143   -5.051034419201e-16
   144    7.442781706579e-03
   145   -9.650631182872e-10
   146    2.415957701843e-03
   147    7.844308483058e-03
   148    5.299450313741e-03
   149   -3.496408232406e-02
   150   -1.313262436758e-03
   151   -3.906105520420e-10
   152   -4.241311994537e-15
   153    1.023787797995e-04
   154    7.733894059264e-04
   155    4.100622966882e-03
   156    1.339825271248e-02
   157    3.359665900560e-02
   158    1.375194057467e-02
   159    8.512664021156e-02
   160   -1.076839000832e-02
   161    3.020335118287e-02
   162   -2.468692102356e-14
   163   -2.361934504701e-01
   164   -1.867504096558e-02
   165    4.174722669853e-02
   166   -3.701068876084e-14
   167   -1.279692321950e-01
   168    6.797468910814e-03
   169    2.589361244477e-02
   170   -3.140566611910e-14
   171    8.731111035265e-02
   172    2.146787155829e-02
   173    3.967165106747e-02
   174    3.439095331586e-14
   175    8.803222482582e-03
   176   -3.863732465619e-03
   177    6.262547719743e-04
   178   -5.027212942051e-13
   179    9.858648856119e-03
   180   -1.733586969939e-15
   181   -7.156854182967e-15
   182   -4.013837604990e-03
   183   -5.437137964223e-04
   184   -6.021442586831e-02
   185   -8.530981317185e-02
   186    4.913134789409e-03
   187    1.562062810677e-02
   188   -6.893119982457e-03
   189   -1.038759614895e-02
   190   -8.510375664971e-16
   191    1.023788941841e-04
   192    7.733902896390e-04
   193    4.100627397732e-03
   194    1.339826785257e-02
   195    3.359669486115e-02
   196    1.375195405229e-02
   197    8.512669251275e-02
   198    1.076838327666e-02
   199    3.020334791404e-02
   200   -1.204891896344e-14
   201   -2.361934710423e-01
   202    1.867503052522e-02
   203    4.174722192133e-02
   204   -3.100564976468e-14
   205   -1.279692656744e-01
   206   -6.797464778472e-03
   207    2.589360705181e-02
   208   -2.088793696269e-14
   209    8.731111208517e-02
   210   -2.146787245829e-02
   211    3.967163594836e-02
   212   -2.369046192930e-14
   213    8.803221596437e-03
   214    3.863735765280e-03
   215    6.262610056897e-04
   216    4.509446679349e-13
   217    9.858649767848e-03
   218   -1.375711526845e-16
   219   -2.766793740378e-15
   220   -4.013837277788e-03
   221    5.437121437922e-04
   222   -6.021443050229e-02
   223   -8.530981861119e-02
   224    4.913132303002e-03
   225    1.562060037491e-02
   226    6.893120134863e-03
   227   -1.038759727367e-02
   228   -2.363657921277e-16
Sym=X
Ene= 1.997065
Spin=Alpha
Occup=1
     1   -6.118318464493e-09
     2   -7.665706408845e-09
     3   -1.776890352499e-09
     4   -4.918905814817e-08
     5    1.316825729717e-09
     6    2.033374547879e-04
     7   -3.101718851854e-14
     8    1.432091946751e-11
     9    1.085185679844e-10
    10    5.713436198693e-10
    11    1.873811144438e-09
    12    4.608930578036e-09
    13    2.002364737996e-09
    14    1.156093681383e-08
    15   -4.485663167295e-10
    16    2.725604993886e-02
    17   -2.561434241100e-13
    18   -2.930186249287e-08
    19   -8.077817875250e-10
    20    4.072718746932e-02
    21   -4.813646515500e-13
    22   -3.068032218158e-08
    23    4.522219084473e-09
    24   -7.488874544317e-03
    25   -3.512902970311e-13
    26   -6.258239540880e-09
    27    2.691787130454e-08
    28    5.333337440678e-03
    29    1.696872585951e-13
    30   -2.224664490764e-09
    31   -2.029261129266e-09
    32    3.483777402349e-03
    33   -1.910382119982e-12
    34    1.086733498313e-09
    35    3.096945130592e-14
    36   -9.287542052311e-14
    37    7.064773471218e-10
    38   -2.622595589064e-03
    39   -7.057750754798e-05
    40   -5.323594291334e-04
    41   -2.836665516731e-03
    42   -9.231436343168e-03
    43   -2.303369189998e-02
    44   -8.341203538125e-03
    45   -6.281090778066e-02
    46    4.388067131288e-02
    47    5.043185693666e-02
    48   -2.825486338433e-13
    49    1.811156934386e-01
    50    6.677533764671e-02
    51    7.349793502078e-02
    52   -5.225828545216e-13
    53    1.309264139245e-01
    54    3.263747533469e-02
    55    5.862317090936e-02
    56   -3.458492558993e-13
    57   -3.069761079535e-01
    58    7.183042125042e-02
    59    1.257246488996e-01
    60   -1.842706760618e-13
    61   -2.962053602994e-02
    62    3.775211125959e-03
    63    3.183993894079e-03
    64    1.891513522387e-12
    65   -6.273580839468e-03
    66   -2.603786556854e-14
    67    5.486251625288e-14
    68   -7.070862264720e-03
    69    1.030526611162e-02
    70    9.025592583486e-02
    71    1.354239842969e-01
    72    8.468588534414e-03
    73   -6.161197847892e-02
    74   -7.007090033778e-03
    75   -1.254033182387e-02
    76   -3.269508062688e-14
    77    7.057730391187e-05
    78    5.323578544552e-04
    79    2.836657638282e-03
    80    9.231409367106e-03
    81    2.303362811931e-02
    82    8.341180392863e-03
    83    6.281081758594e-02
    84    4.388068790261e-02
    85   -5.043184216548e-02
    86   -3.131780341266e-13
    87   -1.811156694592e-01
    88    6.677536335700e-02
    89   -7.349791163449e-02
    90   -5.320902042087e-13
    91   -1.309263888032e-01
    92    3.263748429303e-02
    93   -5.862317058242e-02
    94   -4.220198093776e-13
    95    3.069761211932e-01
    96    7.183043354483e-02
    97   -1.257246694543e-01
    98    1.286374652095e-13
    99    2.962053881784e-02
   100    3.775190585176e-03
   101   -3.184002715039e-03
   102   -1.866187857219e-12
   103    6.273580055627e-03
   104   -1.513403525348e-13
   105   -3.137513093992e-14
   106    7.070865527880e-03
   107    1.030526462551e-02
   108   -9.025591862572e-02
   109   -1.354239739136e-01
   110   -8.468585296477e-03
   111    6.161202054764e-02
   112   -7.007088257553e-03
   113    1.254033102895e-02
   114   -2.249784493620e-14
   115    1.292454920032e-11
   116    9.771077304616e-11
   117    5.174528851188e-10
   118    1.688718036078e-09
   119    4.172071329134e-09
   120    1.843171963703e-09
   121    1.098097025152e-08
   122    4.639920971449e-10
   123   -2.725604993566e-02
   124   -3.169743055923e-13
   125   -2.933454600435e-08
   126    8.302137827488e-10
   127   -4.072718746470e-02
   128   -5.276111606959e-13
   129   -3.073121804838e-08
   130   -4.515076495433e-09
   131    7.488874557399e-03
   132   -3.914760971848e-13
   133   -7.405116562098e-09
   134   -2.690138456245e-08
   135   -5.333336674545e-03
   136   -1.286217642099e-13
   137   -2.269751706647e-09
   138    2.021549444483e-09
   139   -3.483777389925e-03
   140    1.830770080131e-12
   141    1.086396489299e-09
   142   -6.486211996951e-14
   143   -9.245628632858e-14
   144    7.056897846961e-10
   145   -2.622595589207e-03
   146   -6.136942282347e-09
   147   -7.694090424646e-09
   148   -1.770553719208e-09
   149   -4.917827249629e-08
   150   -1.322096191039e-09
   151   -2.033374543747e-04
   152   -1.012301694926e-14
   153   -7.057750678277e-05
   154   -5.323594232081e-04
   155   -2.836665487179e-03
   156   -9.231436241704e-03
   157   -2.303369166024e-02
   158   -8.341203449572e-03
   159   -6.281090745926e-02
   160   -4.388067130928e-02
   161   -5.043185693853e-02
   162   -3.000553514536e-13
   163    1.811156934355e-01
   164   -6.677533763402e-02
   165   -7.349793502102e-02
   166   -4.795378608660e-13
   167    1.309264139226e-01
   168   -3.263747535329e-02
   169   -5.862317089301e-02
   170   -3.876438819642e-13
   171   -3.069761073476e-01
   172   -7.183042204362e-02
   173   -1.257246483937e-01
   174    1.561368731760e-13
   175   -2.962053601535e-02
   176   -3.775211135802e-03
   177   -3.183993886327e-03
   178   -1.880665588162e-12
   179   -6.273580838018e-03
   180   -7.408913348231e-14
   181   -2.663295079384e-14
   182   -7.070862262918e-03
   183    1.030526611198e-02
   184    9.025592583215e-02
   185    1.354239843002e-01
   186    8.468588530863e-03
   187   -6.161197843203e-02
   188    7.007090035535e-03
   189    1.254033182773e-02
   190   -9.509377528362e-15
   191    7.057730323859e-05
   192    5.323578492426e-04
   193    2.836657612269e-03
   194    9.231409277822e-03
   195    2.303362790827e-02
   196    8.341180314903e-03
   197    6.281081730127e-02
   198   -4.388068790197e-02
   199    5.043184216140e-02
   200   -2.668331976722e-13
   201   -1.811156694470e-01
   202   -6.677536335012e-02
   203    7.349791162613e-02
   204   -4.489480393987e-13
   205   -1.309263887554e-01
   206   -3.263748429840e-02
   207    5.862317055645e-02
   208   -3.260848277297e-13
   209    3.069761230276e-01
   210   -7.183043362068e-02
   211    1.257246692383e-01
   212   -1.628769156040e-13
   213    2.962053886032e-02
   214   -3.775190580740e-03
   215    3.184002708599e-03
   216    1.875190787015e-12
   217    6.273580054197e-03
   218   -1.045610405256e-13
   219   -1.091713217032e-13
   220    7.070865526808e-03
   221    1.030526462538e-02
   222   -9.025591861937e-02
   223   -1.354239739083e-01
   224   -8.468585370174e-03
   225    6.161202041382e-02
   226    7.007088258970e-03
   227   -1.254033103215e-02
   228   -1.942768638438e-14
Sym=X
Ene= 1.996867
Spin=Alpha
Occup=1
     1    1.003301935990e-02
     2    1.207431005404e-02
     3   -1.921348157801e-02
     4   -3.143682176796e-02
     5   -5.324169448122e-03
     6   -4.002685772333e-10
     7    4.362430429602e-14
     8   -4.106742873751e-05
     9   -3.108427067255e-04
    10   -1.646331706850e-03
    11   -5.425290824183e-03
    12   -1.367991605305e-02
    13   -2.901431695780e-03
    14   -3.435129285782e-02
    15   -1.673630071676e-03
    16    7.071539475126e-10
    17    1.054067072667e-13
    18    9.258524117393e-02
    19   -4.965816248085e-03
    20   -8.336121559453e-10
    21    2.441263649277e-13
    22   -7.724451314880e-03
    23    1.085815332985e-02
    24    2.739434941169e-09
    25   -1.291444667862e-13
    26    8.543602838528e-02
    27    3.856487454233e-02
    28   -5.750216096626e-08
    29    2.219997461095e-11
    30    4.320413770120e-03
    31   -2.017779819377e-03
    32    5.510992034216e-10
    33   -3.973786943511e-11
    34   -5.782416318159e-03
    35    2.834532593426e-14
    36    1.574223873653e-15
    37   -1.617937322982e-02
    38    1.863453527900e-09
    39   -7.277715389212e-05
    40   -5.491371139567e-04
    41   -2.924216469348e-03
    42   -9.521057157378e-03
    43   -2.369631258339e-02
    44   -7.999976671662e-03
    45   -6.472254276162e-02
    46    4.560739950422e-02
    47    4.285008675546e-02
    48   -4.218252809736e-14
    49    1.834264836671e-01
    50    6.918787890532e-02
    51    6.180193185228e-02
    52   -1.347406242436e-13
    53    1.514308894080e-01
    54    2.963965406553e-02
    55    3.398719310476e-02
    56    2.143529522870e-13
    57    4.105026566509e-02
    58   -2.750429187346e-02
    59    4.578213696013e-02
    60   -2.219994245675e-11
    61    1.701941781639e-03