[Molden Format]
[Atoms] (Angs)
  H      1    1      2.47503475      0.00000000     -0.00000000
  C      2    6      1.39359294      0.00000000     -0.00000000
  C      3    6      0.69679647      1.20688689      0.00000000
  H      4    1      1.23751738      2.14344297      0.00000000
  C      5    6     -0.69679647      1.20688689      0.00000000
  H      6    1     -1.23751738      2.14344297      0.00000000
  C      7    6     -1.39359294     -0.00000000      0.00000000
  H      8    1     -2.47503475     -0.00000000      0.00000000
  C      9    6     -0.69679647     -1.20688689     -0.00000000
  H     10    1     -1.23751738     -2.14344297     -0.00000000
  C     11    6      0.69679647     -1.20688689     -0.00000000
  H     12    1      1.23751738     -2.14344297     -0.00000000
[GTO]
1    0
S    3    1.000000
   3.38650000E+01    2.54938000E-02 
   5.09479000E+00    1.90373000E-01 
   1.15879000E+00    8.52161000E-01 
S    1    1.000000
   3.25840000E-01    1.00000000E+00 
S    1    1.000000
   1.02741000E-01    1.00000000E+00 
S    1    1.000000
   3.60000000E-02    1.00000000E+00 
P    1    1.000000
   7.50000000E-01    1.00000000E+00 

2    0
S    1    1.000000
   4.56324000E+03    1.96665000E-03 
S    1    1.000000
   6.82024000E+02    1.52306000E-02 
S    1    1.000000
   1.54973000E+02    7.61269000E-02 
S    1    1.000000
   4.44553000E+01    2.60801000E-01 
S    1    1.000000
   1.30290000E+01    6.16462000E-01 
S    1    1.000000
   1.82773000E+00    2.21006000E-01 
SP   3    1.000000
   2.09642000E+01    1.14660000E-01   4.02487000E-02 
   4.80331000E+00    9.19999000E-01   2.37594000E-01 
   1.45933000E+00   -3.03068000E-03   8.15854000E-01 
SP   1    1.000000
   4.83456000E-01    1.00000000E+00   1.00000000E+00 
SP   1    1.000000
   1.45585000E-01    1.00000000E+00   1.00000000E+00 
SP   1    1.000000
   4.38000000E-02    1.00000000E+00   1.00000000E+00 
SP   1    1.000000
   1.31927711E-02    1.00000000E+00   1.00000000E+00 
D    1    1.000000
   6.26000000E-01    1.00000000E+00 

3    0
S    1    1.000000
   4.56324000E+03    1.96665000E-03 
S    1    1.000000
   6.82024000E+02    1.52306000E-02 
S    1    1.000000
   1.54973000E+02    7.61269000E-02 
S    1    1.000000
   4.44553000E+01    2.60801000E-01 
S    1    1.000000
   1.30290000E+01    6.16462000E-01 
S    1    1.000000
   1.82773000E+00    2.21006000E-01 
SP   3    1.000000
   2.09642000E+01    1.14660000E-01   4.02487000E-02 
   4.80331000E+00    9.19999000E-01   2.37594000E-01 
   1.45933000E+00   -3.03068000E-03   8.15854000E-01 
SP   1    1.000000
   4.83456000E-01    1.00000000E+00   1.00000000E+00 
SP   1    1.000000
   1.45585000E-01    1.00000000E+00   1.00000000E+00 
SP   1    1.000000
   4.38000000E-02    1.00000000E+00   1.00000000E+00 
SP   1    1.000000
   1.31927711E-02    1.00000000E+00   1.00000000E+00 
D    1    1.000000
   6.26000000E-01    1.00000000E+00 

4    0
S    3    1.000000
   3.38650000E+01    2.54938000E-02 
   5.09479000E+00    1.90373000E-01 
   1.15879000E+00    8.52161000E-01 
S    1    1.000000
   3.25840000E-01    1.00000000E+00 
S    1    1.000000
   1.02741000E-01    1.00000000E+00 
S    1    1.000000
   3.60000000E-02    1.00000000E+00 
P    1    1.000000
   7.50000000E-01    1.00000000E+00 

5    0
S    1    1.000000
   4.56324000E+03    1.96665000E-03 
S    1    1.000000
   6.82024000E+02    1.52306000E-02 
S    1    1.000000
   1.54973000E+02    7.61269000E-02 
S    1    1.000000
   4.44553000E+01    2.60801000E-01 
S    1    1.000000
   1.30290000E+01    6.16462000E-01 
S    1    1.000000
   1.82773000E+00    2.21006000E-01 
SP   3    1.000000
   2.09642000E+01    1.14660000E-01   4.02487000E-02 
   4.80331000E+00    9.19999000E-01   2.37594000E-01 
   1.45933000E+00   -3.03068000E-03   8.15854000E-01 
SP   1    1.000000
   4.83456000E-01    1.00000000E+00   1.00000000E+00 
SP   1    1.000000
   1.45585000E-01    1.00000000E+00   1.00000000E+00 
SP   1    1.000000
   4.38000000E-02    1.00000000E+00   1.00000000E+00 
SP   1    1.000000
   1.31927711E-02    1.00000000E+00   1.00000000E+00 
D    1    1.000000
   6.26000000E-01    1.00000000E+00 

6    0
S    3    1.000000
   3.38650000E+01    2.54938000E-02 
   5.09479000E+00    1.90373000E-01 
   1.15879000E+00    8.52161000E-01 
S    1    1.000000
   3.25840000E-01    1.00000000E+00 
S    1    1.000000
   1.02741000E-01    1.00000000E+00 
S    1    1.000000
   3.60000000E-02    1.00000000E+00 
P    1    1.000000
   7.50000000E-01    1.00000000E+00 

7    0
S    1    1.000000
   4.56324000E+03    1.96665000E-03 
S    1    1.000000
   6.82024000E+02    1.52306000E-02 
S    1    1.000000
   1.54973000E+02    7.61269000E-02 
S    1    1.000000
   4.44553000E+01    2.60801000E-01 
S    1    1.000000
   1.30290000E+01    6.16462000E-01 
S    1    1.000000
   1.82773000E+00    2.21006000E-01 
SP   3    1.000000
   2.09642000E+01    1.14660000E-01   4.02487000E-02 
   4.80331000E+00    9.19999000E-01   2.37594000E-01 
   1.45933000E+00   -3.03068000E-03   8.15854000E-01 
SP   1    1.000000
   4.83456000E-01    1.00000000E+00   1.00000000E+00 
SP   1    1.000000
   1.45585000E-01    1.00000000E+00   1.00000000E+00 
SP   1    1.000000
   4.38000000E-02    1.00000000E+00   1.00000000E+00 
SP   1    1.000000
   1.31927711E-02    1.00000000E+00   1.00000000E+00 
D    1    1.000000
   6.26000000E-01    1.00000000E+00 

8    0
S    3    1.000000
   3.38650000E+01    2.54938000E-02 
   5.09479000E+00    1.90373000E-01 
   1.15879000E+00    8.52161000E-01 
S    1    1.000000
   3.25840000E-01    1.00000000E+00 
S    1    1.000000
   1.02741000E-01    1.00000000E+00 
S    1    1.000000
   3.60000000E-02    1.00000000E+00 
P    1    1.000000
   7.50000000E-01    1.00000000E+00 

9    0
S    1    1.000000
   4.56324000E+03    1.96665000E-03 
S    1    1.000000
   6.82024000E+02    1.52306000E-02 
S    1    1.000000
   1.54973000E+02    7.61269000E-02 
S    1    1.000000
   4.44553000E+01    2.60801000E-01 
S    1    1.000000
   1.30290000E+01    6.16462000E-01 
S    1    1.000000
   1.82773000E+00    2.21006000E-01 
SP   3    1.000000
   2.09642000E+01    1.14660000E-01   4.02487000E-02 
   4.80331000E+00    9.19999000E-01   2.37594000E-01 
   1.45933000E+00   -3.03068000E-03   8.15854000E-01 
SP   1    1.000000
   4.83456000E-01    1.00000000E+00   1.00000000E+00 
SP   1    1.000000
   1.45585000E-01    1.00000000E+00   1.00000000E+00 
SP   1    1.000000
   4.38000000E-02    1.00000000E+00   1.00000000E+00 
SP   1    1.000000
   1.31927711E-02    1.00000000E+00   1.00000000E+00 
D    1    1.000000
   6.26000000E-01    1.00000000E+00 

10    0
S    3    1.000000
   3.38650000E+01    2.54938000E-02 
   5.09479000E+00    1.90373000E-01 
   1.15879000E+00    8.52161000E-01 
S    1    1.000000
   3.25840000E-01    1.00000000E+00 
S    1    1.000000
   1.02741000E-01    1.00000000E+00 
S    1    1.000000
   3.60000000E-02    1.00000000E+00 
P    1    1.000000
   7.50000000E-01    1.00000000E+00 

11    0
S    1    1.000000
   4.56324000E+03    1.96665000E-03 
S    1    1.000000
   6.82024000E+02    1.52306000E-02 
S    1    1.000000
   1.54973000E+02    7.61269000E-02 
S    1    1.000000
   4.44553000E+01    2.60801000E-01 
S    1    1.000000
   1.30290000E+01    6.16462000E-01 
S    1    1.000000
   1.82773000E+00    2.21006000E-01 
SP   3    1.000000
   2.09642000E+01    1.14660000E-01   4.02487000E-02 
   4.80331000E+00    9.19999000E-01   2.37594000E-01 
   1.45933000E+00   -3.03068000E-03   8.15854000E-01 
SP   1    1.000000
   4.83456000E-01    1.00000000E+00   1.00000000E+00 
SP   1    1.000000
   1.45585000E-01    1.00000000E+00   1.00000000E+00 
SP   1    1.000000
   4.38000000E-02    1.00000000E+00   1.00000000E+00 
SP   1    1.000000
   1.31927711E-02    1.00000000E+00   1.00000000E+00 
D    1    1.000000
   6.26000000E-01    1.00000000E+00 

12    0
S    3    1.000000
   3.38650000E+01    2.54938000E-02 
   5.09479000E+00    1.90373000E-01 
   1.15879000E+00    8.52161000E-01 
S    1    1.000000
   3.25840000E-01    1.00000000E+00 
S    1    1.000000
   1.02741000E-01    1.00000000E+00 
S    1    1.000000
   3.60000000E-02    1.00000000E+00 
P    1    1.000000
   7.50000000E-01    1.00000000E+00 

[MO]
Sym=X
Ene= -0.037738
Spin=Alpha
Occup=1
     1    2.240230043042e-05
     2   -6.977558232922e-05
     3   -3.213965355042e-04
     4   -1.477187337524e-04
     5   -3.792899089989e-05
     6   -5.613956735633e-10
     7   -1.317540628699e-16
     8   -1.990461313508e-05
     9   -1.542054638857e-04
    10   -7.685566393447e-04
    11   -2.642134177821e-03
    12   -6.216867927240e-03
    13   -2.268715317417e-03
    14   -8.448804960688e-03
    15   -8.862404260525e-05
    16   -6.784162279090e-10
    17   -3.255880640819e-16
    18    2.950243078455e-04
    19   -1.394184977305e-04
    20   -6.346151164013e-09
    21    6.904298275047e-16
    22   -1.491369144951e-03
    23    9.637417639792e-04
    24    4.225057300749e-09
    25    5.418087586010e-15
    26   -3.096815021917e-04
    27    2.181642419104e-04
    28   -4.324115447048e-09
    29   -2.067105122411e-14
    30   -2.326116430858e-05
    31    2.589370889831e-05
    32    4.931104379070e-10
    33   -9.979990847765e-14
    34   -1.447684359257e-05
    35   -6.587114215966e-16
    36    3.122882970768e-16
    37   -1.495912510977e-04
    38    3.631526947823e-09
    39    5.545399993620e-04
    40    4.293103595962e-03
    41    2.141538183165e-02
    42    7.352850582413e-02
    43    1.736874634778e-01
    44    6.345570776719e-02
    45    2.325881320663e-01
    46    7.755751380198e-05
    47    6.142031793255e-05
    48    2.646558407698e-15
    49    5.842140215336e-04
    50    2.933973744885e-04
    51   -1.746649000139e-04
    52   -2.564276284294e-15
    53    2.071293080699e-03
    54   -7.423619386947e-04
    55   -8.316627472300e-04
    56   -1.853351967307e-15
    57   -3.119299442620e-04
    58    1.500075012628e-04
    59   -2.040399428801e-04
    60    1.777445661769e-14
    61   -1.252151044440e-05
    62   -4.858256020945e-06
    63    4.477046095950e-05
    64    1.133670656857e-13
    65   -7.551328790464e-05
    66    3.369158839813e-16
    67    1.374760558230e-15
    68   -1.894303651003e-04
    69   -6.228174374007e-05
    70    1.785159311529e-04
    71    3.138280946636e-04
    72    2.525484252367e-04
    73    1.888660089520e-05
    74   -5.005917394727e-05
    75   -1.469259485348e-04
    76   -5.045228603639e-16
    77   -5.545499732319e-04
    78   -4.293180809008e-03
    79   -2.141576700756e-02
    80   -7.352982824060e-02
    81   -1.736905877155e-01
    82   -6.345684932549e-02
    83   -2.325923134607e-01
    84    7.755690972988e-05
    85   -6.142071484326e-05
    86    1.412064231454e-15
    87   -5.842304850089e-04
    88    2.933905326264e-04
    89    1.746640450755e-04
    90   -1.773218562229e-15
    91   -2.071303878008e-03
    92   -7.423594778322e-04
    93    8.316669317919e-04
    94    5.821615022005e-15
    95    3.119415633579e-04
    96    1.500048226476e-04
    97    2.040359205577e-04
    98   -2.222678803106e-14
    99    1.252217928351e-05
   100   -4.857247098501e-06
   101   -4.477122011644e-05
   102   -9.362428710953e-14
   103    7.551496954716e-05
   104    4.172645145322e-16
   105    7.270338605961e-16
   106    1.894261927506e-04
   107   -6.228168257443e-05
   108   -1.785196814328e-04
   109   -3.138326459809e-04
   110   -2.525471588121e-04
   111   -1.888421872116e-05
   112   -5.006143483419e-05
   113    1.469287396909e-04
   114   -5.183338008770e-16
   115    1.990461760923e-05
   116    1.542054985155e-04
   117    7.685568121112e-04
   118    2.642134770993e-03
   119    6.216869328389e-03
   120    2.268715830077e-03
   121    8.448806837397e-03
   122   -8.862404362893e-05
   123   -6.868452588174e-10
   124   -8.673813637192e-16
   125   -2.950243070432e-04
   126   -1.394185013410e-04
   127   -6.375318123004e-09
   128    2.655209218716e-15
   129    1.491369154152e-03
   130    9.637417683454e-04
   131    4.235133088554e-09
   132   -8.303397110462e-15
   133    3.096814846778e-04
   134    2.181642375934e-04
   135   -4.346267352957e-09
   136    2.774999598592e-14
   137    2.326116317356e-05
   138    2.589370678740e-05
   139    5.025700537493e-10
   140    6.528050738869e-14
   141    1.447684318303e-05
   142   -2.141145860044e-17
   143    5.664291236207e-16
   144    1.495912526712e-04
   145   -3.647276551263e-09
   146   -2.240229923913e-05
   147    6.977558294519e-05
   148    3.213965374481e-04
   149    1.477187314630e-04
   150   -3.792899047674e-05
   151   -5.634662399985e-10
   152   -4.778920100547e-17
   153   -5.545399671138e-04
   154   -4.293103346300e-03
   155   -2.141538058626e-02
   156   -7.352850154813e-02
   157   -1.736874533772e-01
   158   -6.345570407631e-02
   159   -2.325881185400e-01
   160    7.755750655688e-05
   161    6.142031640529e-05
   162    1.868079928950e-15
   163   -5.842139886944e-04
   164    2.933973550778e-04
   165   -1.746648963023e-04
   166   -1.529711433111e-15
   167   -2.071293036288e-03
   168   -7.423619238956e-04
   169   -8.316627328817e-04
   170    6.182474030618e-15
   171    3.119298974822e-04
   172    1.500075010451e-04
   173   -2.040399508488e-04
   174   -2.946266974076e-14
   175    1.252150753033e-05
   176   -4.858254144072e-06
   177    4.477045075169e-05
   178   -5.067688602423e-14
   179    7.551328385422e-05
   180   -2.817729480547e-16
   181   -1.057694732240e-16
   182    1.894303549576e-04
   183    6.228174104619e-05
   184   -1.785159206341e-04
   185   -3.138280837700e-04
   186   -2.525484203276e-04
   187   -1.888660426709e-05
   188   -5.005917134251e-05
   189   -1.469259413869e-04
   190   -4.506634531309e-16
   191    5.545499275043e-04
   192    4.293180454998e-03
   193    2.141576524164e-02
   194    7.352982217740e-02
   195    1.736905733933e-01
   196    6.345684409392e-02
   197    2.325922942816e-01
   198    7.755690403813e-05
   199   -6.142071113006e-05
   200   -1.863575675156e-16
   201    5.842304280594e-04
   202    2.933905229202e-04
   203    1.746640412825e-04
   204    1.767487706498e-15
   205    2.071303823146e-03
   206   -7.423594638755e-04
   207    8.316669133911e-04
   208   -7.017119038101e-15
   209   -3.119415020315e-04
   210    1.500048232431e-04
   211    2.040359344260e-04
   212    2.715018318957e-14
   213   -1.252217479737e-05
   214   -4.857249541642e-06
   215   -4.477120920236e-05
   216    6.618351370955e-14
   217   -7.551496338537e-05
   218   -7.233686307832e-17
   219   -3.508026446921e-16
   220   -1.894261876703e-04
   221    6.228168019879e-05
   222    1.785196657679e-04
   223    3.138326280940e-04
   224    2.525471565142e-04
   225    1.888422431705e-05
   226   -5.006142927386e-05
   227    1.469287286169e-04
   228   -2.972014357339e-16
Sym=X
Ene= -0.079787
Spin=Alpha
Occup=1
     1   -3.391876857782e-10
     2   -1.127094971712e-09
     3    2.052319377319e-09
     4   -3.261634305746e-10
     5    8.030887119637e-10
     6    2.942378403078e-05
     7    8.675535841736e-16
     8    3.938075448860e-11
     9    3.051600568932e-10
    10    1.521260477207e-09
    11    5.234157543882e-09
    12    1.234255192168e-08
    13    5.407190575538e-09
    14    1.692218066408e-08
    15    4.497399402168e-10
    16    1.198917793056e-04
    17    1.651278067168e-16
    18   -4.831516478878e-09
    19    3.553284192538e-09
    20    4.141522351960e-04
    21   -1.349987896686e-15
    22    4.014699624562e-09
    23   -2.413362628877e-09
    24   -1.364688063720e-04
    25   -8.849916638762e-16
    26   -5.971478564230e-09
    27    6.321266824535e-10
    28    1.580772454358e-04
    29    6.371541948313e-15
    30   -1.698745830317e-10
    31    5.354175535786e-10
    32   -1.362948311718e-04
    33   -1.305847019114e-13
    34    1.894656641851e-10
    35   -3.452334189000e-16
    36    1.087270484456e-15
    37    1.578392640282e-09
    38   -2.238848040700e-04
    39    5.547102527286e-04
    40    4.294430628456e-03
    41    2.142193165750e-02
    42    7.355126907176e-02
    43    1.737393870920e-01
    44    6.347052529450e-02
    45    2.326613274196e-01
    46    9.105412313597e-05
    47    3.781743704914e-05
    48    1.470710467898e-15
    49    6.373375610582e-04
    50    2.080523515104e-04
    51   -5.379878843339e-05
    52   -8.197752760993e-16
    53    7.075119342503e-04
    54   -2.110516856423e-04
    55   -2.290822258611e-04
    56   -2.698774800428e-15
    57   -7.827471297459e-04
    58    1.372235974510e-04
    59    7.959970167098e-05
    60   -1.194832408729e-14
    61   -5.385398835878e-05
    62    6.587879987050e-06
    63    1.477066142968e-04
    64    1.239601796389e-13
    65   -7.270503543269e-05
    66   -7.626511818920e-16
    67    1.687704174419e-15
    68   -1.083514922228e-04
    69   -3.621658176622e-05
    70    1.862608085545e-04
    71    2.044936002278e-04
    72    5.104074040041e-05
    73   -6.571667754895e-05
    74   -5.787909238945e-05
    75   -1.296735892025e-04
    76    3.730900408491e-16
    77   -5.547204131963e-04
    78   -4.294509287727e-03
    79   -2.142232403581e-02
    80   -7.355261626266e-02
    81   -1.737425694060e-01
    82   -6.347168614690e-02
    83   -2.326655881735e-01
    84    9.105339963840e-05
    85   -3.781846310723e-05
    86    2.445534812631e-16
    87   -6.373590474341e-04
    88    2.080460549377e-04
    89    5.380214143020e-05
    90   -1.834825581127e-15
    91   -7.075171613976e-04
    92   -2.110510742005e-04
    93    2.290836512791e-04
    94   -1.489239430887e-15
    95    7.827494633052e-04
    96    1.372229371096e-04
    97   -7.960144459563e-05
    98    2.357251830029e-14
    99    5.385462689603e-05
   100    6.589605273615e-06
   101   -1.477071322600e-04
   102   -1.697171241560e-13
   103    7.270676440023e-05
   104    2.686256770680e-16
   105    9.649539933588e-16
   106    1.083483429560e-04
   107   -3.621792878471e-05
   108   -1.862649264172e-04
   109   -2.044996455426e-04
   110   -5.103763312668e-05
   111    6.571718731460e-05
   112   -5.788143343940e-05
   113    1.296771031261e-04
   114    2.529300216226e-16
   115   -3.496586655412e-11
   116   -2.704177413943e-10
   117   -1.349899357728e-09
   118   -4.623812893794e-09
   119   -1.094381280761e-08
   120   -3.100400676749e-09
   121   -1.426075063863e-08
   122   -4.375335788022e-10
   123   -1.198917796604e-04
   124   -8.816633862683e-16
   125   -4.910234276329e-09
   126   -3.554137986948e-09
   127   -4.141522384082e-04
   128   -3.974722608463e-15
   129    3.737943651686e-09
   130    2.267766369863e-09
   131    1.364688085172e-04
   132    4.275878161769e-15
   133   -5.930827141747e-09
   134   -6.458973604615e-10
   135   -1.580772475633e-04
   136   -3.682870606660e-14
   137   -1.682200796345e-10
   138   -5.305272240633e-10
   139    1.362948314778e-04
   140    2.288168566006e-13
   141    1.996399049858e-10
   142    2.325208879974e-16
   143    4.489816412698e-17
   144    1.573167297256e-09
   145   -2.238848059134e-04
   146   -3.631616497629e-10
   147   -1.169142519357e-09
   148    2.018679721012e-09
   149   -3.289398076936e-10
   150   -8.235802657300e-10
   151   -2.942378428594e-05
   152   -5.249264304953e-16
   153    5.547102929565e-04
   154    4.294430939887e-03
   155    2.142193321099e-02
   156    7.355127440578e-02
   157    1.737393996904e-01
   158    6.347052989689e-02
   159    2.326613442981e-01
   160   -9.105412675103e-05
   161   -3.781744883298e-05
   162   -1.888135026150e-15
   163    6.373375836355e-04
   164   -2.080523340371e-04
   165    5.379876872689e-05
   166    2.802674273422e-15
   167    7.075121738949e-04
   168    2.110517399623e-04
   169    2.290823532784e-04
   170   -8.180028638565e-15
   171   -7.827471333250e-04
   172   -1.372235729800e-04
   173   -7.959969143051e-05
   174    3.188820258343e-14
   175   -5.385398783257e-05
   176   -6.587882197228e-06
   177   -1.477066141085e-04
   178   -2.341232955902e-13
   179   -7.270503986170e-05
   180   -8.255338928301e-16
   181   -1.578483219812e-15
   182   -1.083514859170e-04
   183   -3.621656406202e-05
   184    1.862608196781e-04
   185    2.044936267232e-04
   186    5.104077849741e-05
   187   -6.571666676130e-05
   188    5.787909848724e-05
   189    1.296735953633e-04
   190    1.247144204353e-16
   191   -5.547204483499e-04
   192   -4.294509559887e-03
   193   -2.142232539340e-02
   194   -7.355262092408e-02
   195   -1.737425804154e-01
   196   -6.347169016887e-02
   197   -2.326656029252e-01
   198   -9.105340354807e-05
   199    3.781847464628e-05
   200   -9.021389723785e-16
   201   -6.373590616005e-04
   202   -2.080460409453e-04
   203   -5.380212212005e-05
   204    3.609037569797e-16
   205   -7.075173954726e-04
   206    2.110511297892e-04
   207   -2.290837766107e-04
   208    2.314218601299e-15
   209    7.827494613956e-04
   210   -1.372229137858e-04
   211    7.960143209380e-05
   212   -1.601522852781e-14
   213    5.385462598540e-05
   214   -6.589606887362e-06
   215    1.477071316120e-04
   216    1.840236731590e-13
   217    7.270676796258e-05
   218   -9.822627194119e-16
   219    2.617161241515e-16
   220    1.083483387516e-04
   221   -3.621791113245e-05
   222   -1.862649356823e-04
   223   -2.044996697463e-04
   224   -5.103767198714e-05
   225    6.571717496220e-05
   226    5.788143838967e-05
   227   -1.296771078140e-04
   228   -6.663945540591e-16
Sym=X
Ene= -0.201410
Spin=Alpha
Occup=1
     1   -3.115985411170e-05
     2   -1.160337693627e-04
     3    2.192929451692e-04
     4   -3.905802191763e-05
     5    8.220969542053e-05
     6   -2.665392254763e-10
     7   -1.807368471432e-18
     8    1.965137033021e-05
     9    1.521660652120e-04
    10    7.589476447935e-04
    11    2.606986524709e-03
    12    6.155850639404e-03
    13    2.345369080483e-03
    14    8.285608128372e-03
    15    5.026601475611e-05
    16   -1.091520744924e-09
    17    6.171479768342e-16
    18   -5.002488167351e-04
    19    3.831423022447e-04
    20   -3.774642722325e-09
    21    7.040671113886e-16
    22    4.394024693326e-04
    23   -2.603296350790e-04
    24    1.243504730328e-09
    25   -1.829643458575e-16
    26   -6.691592556266e-04
    27    7.558187974258e-05
    28   -1.483990464741e-09
    29    5.124325314464e-15
    30   -2.036087848973e-05
    31    6.277220469030e-05
    32    1.240689996727e-09
    33   -1.474133527830e-13
    34    1.854906769470e-05
    35    7.863423213476e-16
    36    7.968906793418e-16
    37    1.699388397635e-04
    38    2.037345227592e-09
    39   -5.543766892256e-04
    40   -4.291818282051e-03
    41   -2.140900364248e-02
    42   -7.350570843346e-02
    43   -1.736340175749e-01
    44   -6.333551887065e-02
    45   -2.324781589520e-01
    46    3.835238458705e-05
    47   -5.763535107713e-05
    48   -1.603670876457e-15
    49   -1.159786715013e-03
    50    3.474288447412e-04
    51    1.732008125422e-04
    52    2.005160753234e-15
    53   -2.927447189109e-04
    54   -3.406458198553e-05
    55    8.221596817743e-05
    56   -9.598732764186e-16
    57    1.408407759757e-04
    58    3.745400056505e-05
    59   -9.870569799464e-05
    60   -3.734936690186e-15
    61    3.536838929266e-05
    62   -9.757520877729e-05
    63   -2.796767273817e-05
    64    1.619738089785e-13
    65    9.378626197707e-05
    66   -9.487692361598e-16
    67    4.646959192717e-16
    68   -1.734857732932e-04
    69    6.881082397846e-05
    70   -2.239075665555e-04
    71   -3.276500668997e-04
    72    1.664767803452e-04
    73    2.894687371848e-05
    74    1.273689151415e-04
    75    1.901617924007e-04
    76    2.075435406412e-16
    77   -5.543665241653e-04
    78   -4.291739586639e-03
    79   -2.140861108565e-02
    80   -7.350436060557e-02
    81   -1.736308337996e-01
    82   -6.333435586617e-02
    83   -2.324738954052e-01
    84   -3.835409943168e-05
    85   -5.763466081762e-05
    86    5.974481345265e-16
    87   -1.159775084817e-03
    88   -3.474326185503e-04
    89    1.731998288443e-04
    90    1.028560779893e-15
    91   -2.927317275192e-04
    92    3.406842621110e-05
    93    8.221175531932e-05
    94   -2.386337012033e-16
    95    1.408261747143e-04
    96   -3.745648873763e-05
    97   -9.870408279420e-05
    98    6.861320158726e-15
    99    3.536737745194e-05
   100    9.757508661642e-05
   101   -2.796496889060e-05
   102   -1.776127903891e-13
   103    9.378492977029e-05
   104   -3.688478549149e-16
   105   -4.081757681241e-16
   106   -1.734877536111e-04
   107   -6.881016110670e-05
   108   -2.239041550342e-04
   109   -3.276463107750e-04
   110    1.664776947705e-04
   111    2.894561401865e-05
   112   -1.273678536924e-04
   113    1.901594133921e-04
   114    6.588358405222e-16
   115    1.965137499479e-05
   116    1.521661013178e-04
   117    7.589478249200e-04
   118    2.606987143099e-03
   119    6.155852100585e-03
   120    2.345369614350e-03
   121    8.285610082929e-03
   122   -5.026601406585e-05
   123    1.096877729679e-09
   124    9.405176780040e-16
   125   -5.002488063560e-04
   126   -3.831422998625e-04
   127    3.824871001883e-09
   128   -9.173106970080e-16
   129    4.394024618118e-04
   130    2.603296280386e-04
   131   -1.277006153983e-09
   132   -3.930099975313e-16
   133   -6.691592693836e-04
   134   -7.558188099738e-05
   135    1.519462089556e-09
   136   -5.532319692694e-16
   137   -2.036087913821e-05
   138   -6.277220509296e-05
   139   -1.244527206240e-09
   140    1.628082790504e-13
   141    1.854906676563e-05
   142   -2.647037902451e-16
   143    1.061345993699e-15
   144    1.699388375921e-04
   145    2.066064936759e-09
   146   -3.115985209152e-05
   147   -1.160337679109e-04
   148    2.192929423883e-04
   149   -3.905802255126e-05
   150   -8.220969342011e-05
   151    2.709765678320e-10
   152   -3.030595574347e-16
   153   -5.543767216742e-04
   154   -4.291818533258e-03
   155   -2.140900489561e-02
   156   -7.350571273579e-02
   157   -1.736340277394e-01
   158   -6.333552258425e-02
   159   -2.324781725550e-01
   160   -3.835238790560e-05
   161    5.763535240717e-05
   162    1.680524394865e-15
   163   -1.159786770962e-03
   164   -3.474288778240e-04
   165   -1.732008048629e-04
   166   -2.767207548244e-15
   167   -2.927447416172e-04
   168    3.406460102827e-05
   169   -8.221597864209e-05
   170    4.726771805050e-15
   171    1.408408160719e-04
   172   -3.745401812068e-05
   173    9.870571802199e-05
   174   -2.730573764997e-15
   175    3.536839165517e-05
   176    9.757521271288e-05
   177    2.796767489664e-05
   178   -1.485679846692e-13
   179    9.378626759014e-05
   180    7.090503441254e-18
   181    2.634100103752e-16
   182   -1.734857933164e-04
   183    6.881082147087e-05
   184   -2.239075789978e-04
   185   -3.276500811025e-04
   186    1.664767871673e-04
   187    2.894688230233e-05
   188   -1.273689235780e-04
   189   -1.901618012658e-04
   190   -1.158945378872e-15
   191   -5.543665704167e-04
   192   -4.291739944694e-03
   193   -2.140861287181e-02
   194   -7.350436673795e-02
   195   -1.736308482873e-01
   196   -6.333436115919e-02
   197   -2.324739147964e-01
   198    3.835410061412e-05
   199    5.763466267438e-05
   200   -6.783234495659e-16
   201   -1.159775158099e-03
   202    3.474326395369e-04
   203   -1.731998297902e-04
   204    1.935851322491e-16
   205   -2.927317903497e-04
   206   -3.406842675621e-05
   207   -8.221177787639e-05
   208   -1.160063127401e-15
   209    1.408262304196e-04
   210    3.745649332278e-05
   211    9.870409531464e-05
   212   -3.937375979903e-15
   213    3.536738043182e-05
   214   -9.757509048601e-05
   215    2.796497265661e-05
   216    1.481937305177e-13
   217    9.378493742381e-05
   218    1.608961998933e-15
   219    2.263172168565e-16
   220   -1.734877664910e-04
   221   -6.881016313200e-05
   222   -2.239041721717e-04
   223   -3.276463324472e-04
   224    1.664776979820e-04
   225    2.894562436913e-05
   226    1.273678630974e-04
   227   -1.901594265531e-04
   228    4.825913163957e-16
Sym=X
Ene= -0.495116
Spin=Alpha
Occup=1
     1   -2.796552539640e-10
     2    5.161974434793e-10
     3    2.882001856581e-09
     4    1.358160065117e-09
     5    4.124146147904e-10
     6   -6.246146465398e-05
     7    9.227278274282e-16
     8   -3.647908068211e-11
     9   -2.814166840572e-10
    10   -1.409916676789e-09
    11   -4.810297351490e-09
    12   -1.158491030721e-08
    13   -4.245358504526e-09
    14   -1.438069035143e-08
    15    7.793504210596e-10
    16   -7.562596368290e-05
    17    6.093032438787e-17
    18   -2.981344292713e-09
    19    1.304205642894e-09
    20   -7.082496766539e-04
    21   -2.710481761804e-16
    22    1.299196096780e-08
    23   -8.484754838567e-09
    24    4.710426453855e-04
    25    2.144984584460e-16
    26    2.881067500174e-09
    27   -1.985026654571e-09
    28   -4.811188329193e-04
    29    1.807367310981e-14
    30    2.170632791616e-10
    31   -2.512015816433e-10
    32    5.516399023896e-05
    33   -9.840092224395e-14
    34    1.654424999133e-10
    35   -8.772426285375e-16
    36    4.781619578624e-16
    37    1.369535897455e-09
    38    4.049092442435e-04
    39   -5.545421440084e-04
    40   -4.293006979444e-03
    41   -2.141559463415e-02
    42   -7.352577390237e-02
    43   -1.737062405932e-01
    44   -6.346524529778e-02
    45   -2.324849920165e-01
    46    3.101086341912e-05
    47   -2.191283648655e-05
    48    5.751822093472e-16
    49   -9.119732776264e-04
    50    3.813503269607e-04
    51   -4.772519158448e-05
    52   -1.490773845511e-15
    53   -6.015299606428e-04
    54   -1.377442102832e-04
    55    2.324584660494e-04
    56    2.862819208469e-15
    57    6.447537877535e-04
    58    1.479293781542e-04
    59   -2.248933797819e-04
    60   -1.581529267846e-14
    61    3.711480087898e-05