[Molden Format]
[Atoms] (Angs)
  H      1    1      2.47503475      0.00000000     -0.00000000
  C      2    6      1.39359294      0.00000000     -0.00000000
  C      3    6      0.69679647      1.20688689      0.00000000
  H      4    1      1.23751738      2.14344297      0.00000000
  C      5    6     -0.69679647      1.20688689      0.00000000
  H      6    1     -1.23751738      2.14344297      0.00000000
  C      7    6     -1.39359294     -0.00000000      0.00000000
  H      8    1     -2.47503475     -0.00000000      0.00000000
  C      9    6     -0.69679647     -1.20688689     -0.00000000
  H     10    1     -1.23751738     -2.14344297     -0.00000000
  C     11    6      0.69679647     -1.20688689     -0.00000000
  H     12    1      1.23751738     -2.14344297     -0.00000000
[GTO]
1    0
S    3    1.000000
   3.38650000E+01    2.54938000E-02 
   5.09479000E+00    1.90373000E-01 
   1.15879000E+00    8.52161000E-01 
S    1    1.000000
   3.25840000E-01    1.00000000E+00 
S    1    1.000000
   1.02741000E-01    1.00000000E+00 
S    1    1.000000
   3.60000000E-02    1.00000000E+00 
P    1    1.000000
   7.50000000E-01    1.00000000E+00 

2    0
S    1    1.000000
   4.56324000E+03    1.96665000E-03 
S    1    1.000000
   6.82024000E+02    1.52306000E-02 
S    1    1.000000
   1.54973000E+02    7.61269000E-02 
S    1    1.000000
   4.44553000E+01    2.60801000E-01 
S    1    1.000000
   1.30290000E+01    6.16462000E-01 
S    1    1.000000
   1.82773000E+00    2.21006000E-01 
SP   3    1.000000
   2.09642000E+01    1.14660000E-01   4.02487000E-02 
   4.80331000E+00    9.19999000E-01   2.37594000E-01 
   1.45933000E+00   -3.03068000E-03   8.15854000E-01 
SP   1    1.000000
   4.83456000E-01    1.00000000E+00   1.00000000E+00 
SP   1    1.000000
   1.45585000E-01    1.00000000E+00   1.00000000E+00 
SP   1    1.000000
   4.38000000E-02    1.00000000E+00   1.00000000E+00 
SP   1    1.000000
   1.31927711E-02    1.00000000E+00   1.00000000E+00 
D    1    1.000000
   6.26000000E-01    1.00000000E+00 

3    0
S    1    1.000000
   4.56324000E+03    1.96665000E-03 
S    1    1.000000
   6.82024000E+02    1.52306000E-02 
S    1    1.000000
   1.54973000E+02    7.61269000E-02 
S    1    1.000000
   4.44553000E+01    2.60801000E-01 
S    1    1.000000
   1.30290000E+01    6.16462000E-01 
S    1    1.000000
   1.82773000E+00    2.21006000E-01 
SP   3    1.000000
   2.09642000E+01    1.14660000E-01   4.02487000E-02 
   4.80331000E+00    9.19999000E-01   2.37594000E-01 
   1.45933000E+00   -3.03068000E-03   8.15854000E-01 
SP   1    1.000000
   4.83456000E-01    1.00000000E+00   1.00000000E+00 
SP   1    1.000000
   1.45585000E-01    1.00000000E+00   1.00000000E+00 
SP   1    1.000000
   4.38000000E-02    1.00000000E+00   1.00000000E+00 
SP   1    1.000000
   1.31927711E-02    1.00000000E+00   1.00000000E+00 
D    1    1.000000
   6.26000000E-01    1.00000000E+00 

4    0
S    3    1.000000
   3.38650000E+01    2.54938000E-02 
   5.09479000E+00    1.90373000E-01 
   1.15879000E+00    8.52161000E-01 
S    1    1.000000
   3.25840000E-01    1.00000000E+00 
S    1    1.000000
   1.02741000E-01    1.00000000E+00 
S    1    1.000000
   3.60000000E-02    1.00000000E+00 
P    1    1.000000
   7.50000000E-01    1.00000000E+00 

5    0
S    1    1.000000
   4.56324000E+03    1.96665000E-03 
S    1    1.000000
   6.82024000E+02    1.52306000E-02 
S    1    1.000000
   1.54973000E+02    7.61269000E-02 
S    1    1.000000
   4.44553000E+01    2.60801000E-01 
S    1    1.000000
   1.30290000E+01    6.16462000E-01 
S    1    1.000000
   1.82773000E+00    2.21006000E-01 
SP   3    1.000000
   2.09642000E+01    1.14660000E-01   4.02487000E-02 
   4.80331000E+00    9.19999000E-01   2.37594000E-01 
   1.45933000E+00   -3.03068000E-03   8.15854000E-01 
SP   1    1.000000
   4.83456000E-01    1.00000000E+00   1.00000000E+00 
SP   1    1.000000
   1.45585000E-01    1.00000000E+00   1.00000000E+00 
SP   1    1.000000
   4.38000000E-02    1.00000000E+00   1.00000000E+00 
SP   1    1.000000
   1.31927711E-02    1.00000000E+00   1.00000000E+00 
D    1    1.000000
   6.26000000E-01    1.00000000E+00 

6    0
S    3    1.000000
   3.38650000E+01    2.54938000E-02 
   5.09479000E+00    1.90373000E-01 
   1.15879000E+00    8.52161000E-01 
S    1    1.000000
   3.25840000E-01    1.00000000E+00 
S    1    1.000000
   1.02741000E-01    1.00000000E+00 
S    1    1.000000
   3.60000000E-02    1.00000000E+00 
P    1    1.000000
   7.50000000E-01    1.00000000E+00 

7    0
S    1    1.000000
   4.56324000E+03    1.96665000E-03 
S    1    1.000000
   6.82024000E+02    1.52306000E-02 
S    1    1.000000
   1.54973000E+02    7.61269000E-02 
S    1    1.000000
   4.44553000E+01    2.60801000E-01 
S    1    1.000000
   1.30290000E+01    6.16462000E-01 
S    1    1.000000
   1.82773000E+00    2.21006000E-01 
SP   3    1.000000
   2.09642000E+01    1.14660000E-01   4.02487000E-02 
   4.80331000E+00    9.19999000E-01   2.37594000E-01 
   1.45933000E+00   -3.03068000E-03   8.15854000E-01 
SP   1    1.000000
   4.83456000E-01    1.00000000E+00   1.00000000E+00 
SP   1    1.000000
   1.45585000E-01    1.00000000E+00   1.00000000E+00 
SP   1    1.000000
   4.38000000E-02    1.00000000E+00   1.00000000E+00 
SP   1    1.000000
   1.31927711E-02    1.00000000E+00   1.00000000E+00 
D    1    1.000000
   6.26000000E-01    1.00000000E+00 

8    0
S    3    1.000000
   3.38650000E+01    2.54938000E-02 
   5.09479000E+00    1.90373000E-01 
   1.15879000E+00    8.52161000E-01 
S    1    1.000000
   3.25840000E-01    1.00000000E+00 
S    1    1.000000
   1.02741000E-01    1.00000000E+00 
S    1    1.000000
   3.60000000E-02    1.00000000E+00 
P    1    1.000000
   7.50000000E-01    1.00000000E+00 

9    0
S    1    1.000000
   4.56324000E+03    1.96665000E-03 
S    1    1.000000
   6.82024000E+02    1.52306000E-02 
S    1    1.000000
   1.54973000E+02    7.61269000E-02 
S    1    1.000000
   4.44553000E+01    2.60801000E-01 
S    1    1.000000
   1.30290000E+01    6.16462000E-01 
S    1    1.000000
   1.82773000E+00    2.21006000E-01 
SP   3    1.000000
   2.09642000E+01    1.14660000E-01   4.02487000E-02 
   4.80331000E+00    9.19999000E-01   2.37594000E-01 
   1.45933000E+00   -3.03068000E-03   8.15854000E-01 
SP   1    1.000000
   4.83456000E-01    1.00000000E+00   1.00000000E+00 
SP   1    1.000000
   1.45585000E-01    1.00000000E+00   1.00000000E+00 
SP   1    1.000000
   4.38000000E-02    1.00000000E+00   1.00000000E+00 
SP   1    1.000000
   1.31927711E-02    1.00000000E+00   1.00000000E+00 
D    1    1.000000
   6.26000000E-01    1.00000000E+00 

10    0
S    3    1.000000
   3.38650000E+01    2.54938000E-02 
   5.09479000E+00    1.90373000E-01 
   1.15879000E+00    8.52161000E-01 
S    1    1.000000
   3.25840000E-01    1.00000000E+00 
S    1    1.000000
   1.02741000E-01    1.00000000E+00 
S    1    1.000000
   3.60000000E-02    1.00000000E+00 
P    1    1.000000
   7.50000000E-01    1.00000000E+00 

11    0
S    1    1.000000
   4.56324000E+03    1.96665000E-03 
S    1    1.000000
   6.82024000E+02    1.52306000E-02 
S    1    1.000000
   1.54973000E+02    7.61269000E-02 
S    1    1.000000
   4.44553000E+01    2.60801000E-01 
S    1    1.000000
   1.30290000E+01    6.16462000E-01 
S    1    1.000000
   1.82773000E+00    2.21006000E-01 
SP   3    1.000000
   2.09642000E+01    1.14660000E-01   4.02487000E-02 
   4.80331000E+00    9.19999000E-01   2.37594000E-01 
   1.45933000E+00   -3.03068000E-03   8.15854000E-01 
SP   1    1.000000
   4.83456000E-01    1.00000000E+00   1.00000000E+00 
SP   1    1.000000
   1.45585000E-01    1.00000000E+00   1.00000000E+00 
SP   1    1.000000
   4.38000000E-02    1.00000000E+00   1.00000000E+00 
SP   1    1.000000
   1.31927711E-02    1.00000000E+00   1.00000000E+00 
D    1    1.000000
   6.26000000E-01    1.00000000E+00 

12    0
S    3    1.000000
   3.38650000E+01    2.54938000E-02 
   5.09479000E+00    1.90373000E-01 
   1.15879000E+00    8.52161000E-01 
S    1    1.000000
   3.25840000E-01    1.00000000E+00 
S    1    1.000000
   1.02741000E-01    1.00000000E+00 
S    1    1.000000
   3.60000000E-02    1.00000000E+00 
P    1    1.000000
   7.50000000E-01    1.00000000E+00 

[MO]
Sym=X
Ene= -0.006989
Spin=Alpha
Occup=1
     1    1.990954949504e-04
     2    3.206213967491e-04
     3   -2.295553132621e-04
     4   -7.828531612723e-06
     5   -2.240254759164e-04
     6    2.162578583821e-10
     7    2.129075161180e-16
     8    4.527054004121e-04
     9    3.504696712712e-03
    10    1.748262632177e-02
    11    6.002437324057e-02
    12    1.417895907868e-01
    13    5.167826279298e-02
    14    1.898236290805e-01
    15    4.658207520849e-06
    16    9.240523172850e-10
    17    1.108020123601e-15
    18    1.172120902915e-03
    19   -4.283797071397e-04
    20    3.037618774308e-09
    21   -3.072413672981e-15
    22    6.071614156724e-05
    23    6.318275761498e-05
    24   -9.848543313303e-10
    25    6.126247124558e-15
    26    1.610748120497e-04
    27    2.407685038493e-05
    28    1.152834900743e-09
    29   -1.941325577575e-14
    30   -2.093925347673e-05
    31    3.460099398387e-05
    32   -1.004691580364e-09
    33   -1.107164231519e-14
    34   -8.567862964649e-05
    35   -7.058332837081e-16
    36   -1.019675134575e-15
    37   -1.922948075053e-04
    38   -1.649721686951e-09
    39    4.527131561047e-04
    40    3.504756755389e-03
    41    1.748292583309e-02
    42    6.002540159964e-02
    43    1.417920199256e-01
    44    5.167915010694e-02
    45    1.898268820864e-01
    46    2.329784921313e-06
    47    4.035153220086e-06
    48    7.686586691077e-16
    49    1.172129777488e-03
    50   -2.141893361146e-04
    51   -3.709872699600e-04
    52    7.666042613940e-16
    53    6.072607276796e-05
    54    3.158923541281e-05
    55    5.471430982278e-05
    56   -2.788745417702e-15
    57    1.610626769697e-04
    58    1.203980309656e-05
    59    2.085336973474e-05
    60    1.046583021938e-14
    61   -2.094012729227e-05
    62    1.730139311460e-05
    63    2.996699241686e-05
    64    1.806245814652e-14
    65   -8.567966137220e-05
    66    9.835059436156e-16
    67   -6.748642791331e-16
    68    9.614715290655e-05
    69   -1.665320241383e-04
    70    1.990981101658e-04
    71    3.206243259075e-04
    72   -2.295547681463e-04
    73   -7.829787199479e-06
    74   -1.120137247854e-04
    75   -1.940135022539e-04
    76   -1.199501164248e-16
    77    4.527048561126e-04
    78    3.504692498871e-03
    79    1.748260530191e-02
    80    6.002430106882e-02
    81    1.417894203045e-01
    82    5.167820049261e-02
    83    1.898234008062e-01
    84   -2.328385952915e-06
    85    4.034588767899e-06
    86    2.029072904362e-16
    87    1.172120273765e-03
    88    2.141924286993e-04
    89   -3.709864538811e-04
    90   -2.326176865978e-16
    91    6.071546070035e-05
    92   -3.159239567953e-05
    93    5.471774920682e-05
    94   -1.292536070274e-15
    95    1.610746729053e-04
    96   -1.203768406126e-05
    97    2.085206660416e-05
    98   -1.090276557511e-15
    99   -2.093929384337e-05
   100   -1.730129135006e-05
   101    2.996479930876e-05
   102   -2.689056885828e-14
   103   -8.567857042511e-05
   104    4.165801026901e-16
   105    6.958014973611e-16
   106    9.614877348993e-05
   107    1.665314759275e-04
   108    1.990953242489e-04
   109    3.206212554918e-04
   110   -2.295555158614e-04
   111   -7.828749838266e-06
   112    1.120128577170e-04
   113   -1.940115593364e-04
   114   -5.592914583987e-16
   115    4.527053926988e-04
   116    3.504696653000e-03
   117    1.748262602391e-02
   118    6.002437221791e-02
   119    1.417895883707e-01
   120    5.167826191027e-02
   121    1.898236258469e-01
   122   -4.658207471212e-06
   123   -9.329910700949e-10
   124   -6.800318703724e-16
   125    1.172120890188e-03
   126    4.283797051280e-04
   127   -3.120287159185e-09
   128    1.540746306525e-15
   129    6.071613439932e-05
   130   -6.318275877428e-05
   131    1.040013297538e-09
   132    4.686502496366e-16
   133    1.610748268494e-04
   134   -2.407685014272e-05
   135   -1.211345717832e-09
   136   -1.772884837481e-16
   137   -2.093925279805e-05
   138   -3.460099336930e-05
   139    1.010973910040e-09
   140    3.488155098495e-14
   141   -8.567862836004e-05
   142    4.696597296116e-16
   143    1.622660495815e-16
   144   -1.922948059750e-04
   145   -1.697019806205e-09
   146    1.990954920313e-04
   147    3.206213934333e-04
   148   -2.295553125915e-04
   149   -7.828531384006e-06
   150    2.240254731986e-04
   151   -2.235650726720e-10
   152    1.605200613062e-16
   153    4.527132170719e-04
   154    3.504757227372e-03
   155    1.748292818755e-02
   156    6.002540968319e-02
   157    1.417920390231e-01
   158    5.167915708431e-02
   159    1.898269076462e-01
   160   -2.329780560055e-06
   161   -4.035156183967e-06
   162   -1.742139443227e-15
   163    1.172129877717e-03
   164    2.141893864674e-04
   165    3.709872597754e-04
   166    1.696079708499e-15
   167    6.072613790530e-05
   168   -3.158925667201e-05
   169   -5.471428159244e-05
   170   -1.642266694275e-15
   171    1.610626050761e-04
   172   -1.203977766813e-05
   173   -2.085339944216e-05
   174   -6.397348052855e-15
   175   -2.094013138260e-05
   176   -1.730139965618e-05
   177   -2.996699656217e-05
   178   -2.589444603121e-14
   179   -8.567967163398e-05
   180    5.089339806090e-16
   181   -4.253619199275e-16
   182    9.614718322187e-05
   183   -1.665320209286e-04
   184    1.990981330927e-04
   185    3.206243535307e-04
   186   -2.295547760577e-04
   187   -7.829801466782e-06
   188    1.120137393421e-04
   189    1.940135188571e-04
   190    1.009983844547e-15
   191    4.527049247084e-04
   192    3.504693029912e-03
   193    1.748260795101e-02
   194    6.002431016389e-02
   195    1.417894417918e-01
   196    5.167820834307e-02
   197    1.898234295645e-01
   198    2.328382983815e-06
   199   -4.034590981109e-06
   200    8.724912906230e-16
   201    1.172120386471e-03
   202   -2.141924673803e-04
   203    3.709864529401e-04
   204    1.035124183171e-16
   205    6.071553637927e-05
   206    3.159240670885e-05
   207   -5.471772304618e-05
   208   -3.571502335176e-15
   209    1.610745866398e-04
   210    1.203767270834e-05
   211   -2.085209020262e-05
   212    1.696886045954e-14
   213   -2.093929858019e-05
   214    1.730129760957e-05
   215   -2.996480486128e-05
   216    9.638224465594e-15
   217   -8.567858200068e-05
   218   -8.311015858332e-16
   219   -2.230501373703e-16
   220    9.614879732930e-05
   221    1.665314783384e-04
   222    1.990953500318e-04
   223    3.206212868794e-04
   224   -2.295555243414e-04
   225   -7.828766341309e-06
   226   -1.120128725293e-04
   227    1.940115789854e-04
   228   -4.216201960094e-16
Sym=X
Ene= -0.022988
Spin=Alpha
Occup=1
     1   -2.807136074398e-10
     2    5.149118482936e-10
     3    2.882364443842e-09
     4    1.358838223395e-09
     5    4.134165588050e-10
     6   -6.246146465398e-05
     7    9.227278259040e-16
     8   -3.929537262925e-11
     9   -3.032191135966e-10
    10   -1.518677742126e-09
    11   -5.183704875173e-09
    12   -1.246709314926e-08
    13   -4.567672641859e-09
    14   -1.556138671856e-08
    15    7.793328053640e-10
    16   -7.562596368295e-05
    17    6.093031876839e-17
    18   -2.985975711644e-09
    19    1.304964088324e-09
    20   -7.082496766537e-04
    21   -2.710481663944e-16
    22    1.298890670010e-08
    23   -8.484082480752e-09
    24    4.710426453853e-04
    25    2.144984142884e-16
    26    2.884340309644e-09
    27   -1.985639248045e-09
    28   -4.811188329191e-04
    29    1.807367345123e-14
    30    2.172516145823e-10
    31   -2.515293523150e-10
    32    5.516399023894e-05
    33   -9.840092662470e-14
    34    1.659165205798e-10
    35   -8.772426244838e-16
    36    4.781619572613e-16
    37    1.370109093834e-09
    38    4.049092442435e-04
    39   -5.545421454166e-04
    40   -4.293006990345e-03
    41   -2.141559468853e-02
    42   -7.352577408907e-02
    43   -1.737062410343e-01
    44   -6.346524545894e-02
    45   -2.324849926068e-01
    46    3.101086316528e-05
    47   -2.191283635017e-05
    48    5.751822038779e-16
    49   -9.119732799422e-04
    50    3.813503248139e-04
    51   -4.772518990714e-05
    52   -1.490773856447e-15
    53   -6.015299621706e-04
    54   -1.377442085610e-04
    55    2.324584654437e-04
    56    2.862819257618e-15
    57    6.447537893910e-04
    58    1.479293764136e-04
    59   -2.248933791313e-04
    60   -1.581529305749e-14
    61    3.711480097329e-05
    62   -5.616351336826e-05
    63   -4.211455620787e-05
    64    9.965357126673e-14
    65    9.334069373017e-05
    66    5.570262387011e-16
    67   -3.566738917492e-16
    68   -2.317612109889e-04
    69   -3.483387209612e-06
    70   -2.083990141808e-04
    71   -2.531401787513e-04
    72    7.140876162463e-05
    73    1.336277443009e-04
    74    1.256872387974e-04
    75    1.552357907253e-04
    76    3.852873537302e-16
    77   -5.545321664407e-04
    78   -4.292929735746e-03
    79   -2.141520931744e-02
    80   -7.352445093917e-02
    81   -1.737031155110e-01
    82   -6.346410365933e-02
    83   -2.324808071741e-01
    84   -3.101231205921e-05
    85   -2.191177024493e-05
    86    5.649371582523e-16
    87   -9.119627130886e-04
    88   -3.813557402005e-04
    89   -4.772848321256e-05
    90   -7.958847183237e-16
    91   -6.014931220128e-04
    92    1.377575354106e-04
    93    2.324438185969e-04
    94    3.422849833033e-16
    95    6.447481377953e-04
    96   -1.479322056101e-04
    97   -2.248970134294e-04
    98    1.782971391924e-14
    99    3.711457026358e-05
   100    5.616360970174e-05
   101   -4.211373809100e-05
   102   -8.130664441313e-14
   103    9.333932948296e-05
   104    6.215782515255e-16
   105   -4.052026393501e-16
   106   -2.317647022349e-04
   107    3.484614071077e-06
   108   -2.083957940594e-04
   109   -2.531345412806e-04
   110    7.141318955019e-05
   111    1.336280183687e-04
   112   -1.256863473313e-04
   113    1.552331218880e-04
   114    4.787301101769e-16
   115   -3.794862778921e-11
   116   -2.947855250979e-10
   117   -1.464369495527e-09
   118   -5.058279344718e-09
   119   -1.172639841021e-08
   120   -4.256650092837e-09
   121   -1.683089535435e-08
   122    7.833192166984e-10
   123   -7.562596312143e-05
   124    4.073313120557e-16
   125    2.821107762514e-09
   126    1.257384640721e-09
   127   -7.082496747558e-04
   128   -4.068673353597e-16
   129   -1.302753535701e-08
   130   -8.489851490613e-09
   131    4.710426451999e-04
   132    3.473001353801e-15
   133   -2.855935500168e-09
   134   -1.971597236158e-09
   135   -4.811188462451e-04
   136   -2.246025919045e-14
   137   -2.112284100266e-10
   138   -2.418220667494e-10
   139    5.516398998188e-05
   140    5.962384851641e-14
   141   -1.526864463233e-10
   142    4.549397395472e-16
   143   -3.264682658239e-16
   144   -1.348611196077e-09
   145   -4.049092432224e-04
   146    2.492798224226e-10
   147   -5.613384844903e-10
   148   -2.857291936717e-09
   149   -1.352497130832e-09
   150    3.810379597264e-10
   151   -6.246146453463e-05
   152    1.045019368873e-15
   153    5.545421021733e-04
   154    4.293006655562e-03
   155    2.141559301852e-02
   156    7.352576835531e-02
   157    1.737062274900e-01
   158    6.346524052482e-02
   159    2.324849744752e-01
   160    3.101086648752e-05
   161   -2.191283922243e-05
   162   -1.496355744433e-15
   163    9.119731540197e-04
   164    3.813503118944e-04
   165   -4.772524136862e-05
   166    4.378939925211e-15
   167    6.015299675232e-04
   168   -1.377442068310e-04
   169    2.324584790125e-04
   170   -7.171231828458e-15
   171   -6.447538251528e-04
   172    1.479293936787e-04
   173   -2.248933892215e-04
   174    2.853010204491e-14
   175   -3.711479971718e-05
   176   -5.616351596468e-05
   177   -4.211455306709e-05
   178   -6.157361088177e-14
   179   -9.334068499916e-05
   180   -6.565913747163e-16
   181   -2.473882445890e-17
   182    2.317612063885e-04
   183    3.483410937880e-06
   184    2.083989941705e-04
   185    2.531401447859e-04
   186   -7.140873386041e-05
   187   -1.336277444534e-04
   188    1.256872278427e-04
   189    1.552357696486e-04
   190    5.802358034992e-16
   191    5.545321282723e-04
   192    4.292929440261e-03
   193    2.141520784345e-02
   194    7.352444587844e-02
   195    1.737031035565e-01
   196    6.346409930602e-02
   197    2.324807911714e-01
   198   -3.101231453460e-05
   199   -2.191177344337e-05
   200    4.538430724653e-16
   201    9.119625929546e-04
   202   -3.813557253292e-04
   203   -4.772853417902e-05
   204   -5.400249541822e-16
   205    6.014931339473e-04
   206    1.377575309717e-04
   207    2.324438337364e-04
   208    6.675322831596e-15
   209   -6.447481868369e-04
   210   -1.479321954377e-04
   211   -2.248970139023e-04
   212   -2.517782089489e-14
   213   -3.711457019701e-05
   214    5.616361301301e-05
   215   -4.211373506155e-05
   216    7.826159546763e-14
   217   -9.333932141972e-05
   218   -1.204231495299e-15
   219    7.240244479480e-16
   220    2.317646966447e-04
   221   -3.484637467587e-06
   222    2.083957757286e-04
   223    2.531345092577e-04
   224   -7.141316183879e-05
   225   -1.336280218863e-04
   226   -1.256863368825e-04
   227    1.552331020024e-04
   228    8.056626909696e-16
Sym=X
Ene= -0.022988
Spin=Alpha
Occup=1
     1   -2.406360614089e-04
     2   -2.922966689852e-04
     3    8.245937890933e-05
     4    1.543003606086e-04
     5    2.277992961857e-04
     6    3.249729990226e-10
     7   -3.465368608494e-16
     8   -6.403226179048e-04
     9   -4.957079451112e-03
    10   -2.472830923535e-02
    11   -8.489925700420e-02
    12   -2.005763422544e-01
    13   -7.328249548586e-02
    14   -2.684474019525e-01
    15   -4.007170116466e-06
    16    3.488616076552e-10
    17   -1.277651742167e-15
    18   -1.053048582961e-03
    19    1.724473900533e-04
    20    3.714786454698e-09
    21    2.224997665673e-15
    22   -6.945569193404e-04
    23    1.529158749792e-04
    24   -2.465872421819e-09
    25   -1.003987822662e-14
    26    7.444942077962e-04
    27   -1.394877917532e-04
    28    2.551114089434e-09
    29    7.762898053450e-14
    30    4.285634778588e-05
    31   -7.454009601750e-05
    32   -2.946271118565e-10
    33   -9.960330718487e-13
    34    1.077795348186e-04
    35    9.216863080290e-16
    36   -1.366748483547e-16
    37    1.303246735637e-04
    38   -2.109707472558e-09
    39   -3.201609798820e-04
    40   -2.478537178816e-03
    41   -1.236414190865e-02
    42   -4.244958489197e-02
    43   -1.002880679235e-01
    44   -3.664120994440e-02
    45   -1.342235637546e-01
    46   -5.772179052575e-05
    47    3.101134947689e-05
    48   -1.243513697346e-15
    49   -5.265215089105e-04
    50   -4.880774989894e-04
    51    3.813531582112e-04
    52   -2.486629599488e-15
    53   -3.472884095488e-04
    54    3.915152935055e-04
    55   -1.377478370760e-04
    56    1.117476533417e-14
    57    3.722443744841e-04
    58   -3.957115683911e-04
    59    1.479326151192e-04
    60   -8.618017875843e-14
    61    2.142798147364e-05
    62    2.273818838958e-05
    63   -5.616337292747e-05
    64    1.012701819878e-12
    65    5.388960947657e-05
    66    9.943813992641e-17
    67   -1.090306574780e-15
    68    2.711022330553e-04
    69    2.317626841218e-04
    70   -1.203177084316e-04
    71   -1.461486778317e-04
    72    4.122748320440e-05
    73    7.714911465651e-05
    74    1.010338611218e-05
    75    1.256863352048e-04
    76   -7.832919758516e-17
    77    3.201667472483e-04
    78    2.478581827077e-03
    79    1.236436463573e-02
    80    4.245034957613e-02
    81    1.002898745077e-01
    82    3.664187005348e-02
    83    1.342259816331e-01
    84   -5.772144308246e-05
    85   -3.101112181769e-05
    86   -1.983056893994e-15
    87    5.265310201208e-04
    88   -4.880735339686e-04
    89   -3.813526529391e-04
    90    2.230952844291e-15
    91    3.472946619931e-04
    92    3.915138630675e-04
    93    1.377454159211e-04
    94   -1.396737291094e-14
    95   -3.722511995017e-04
    96   -3.957099855013e-04
    97   -1.479302839596e-04
    98    8.736869303344e-14
    99   -2.142837284974e-05
   100    2.273760600516e-05
   101    5.616381705508e-05
   102   -1.026397703696e-12
   103   -5.389057854188e-05
   104   -7.718811029961e-16
   105   -6.739057878635e-16
   106   -2.710998195317e-04
   107    2.317626438316e-04
   108    1.203198763786e-04
   109    1.461513085549e-04
   110   -4.122821204097e-05
   111   -7.715048463835e-05
   112    1.010469251657e-05
   113   -1.256879500941e-04
   114    3.628311226842e-16
   115    6.403226207483e-04
   116    4.957079473115e-03
   117    2.472830934513e-02
   118    8.489925738110e-02
   119    2.005763431448e-01
   120    7.328249580972e-02
   121    2.684474031441e-01
   122   -4.007169810011e-06
   123    3.441238463452e-10
   124    3.217888306028e-16
   125    1.053048594069e-03
   126    1.724473954890e-04
   127    3.699109730440e-09
   128   -3.020058230430e-15
   129    6.945569167944e-04
   130    1.529158728304e-04
   131   -2.460757396073e-09
   132    9.402108324467e-15
   133   -7.444942016017e-04
   134   -1.394877908611e-04
   135    2.542630241590e-09
   136   -7.685139570929e-14
   137   -4.285634770076e-05
   138   -7.454009607351e-05
   139   -2.889527324073e-10
   140    1.012818452683e-12
   141   -1.077795355108e-04
   142    2.185312160313e-16
   143   -4.011803570469e-16
   144   -1.303246759569e-04
   145    2.101168636512e-09
   146    2.406360629308e-04
   147    2.922966718847e-04
   148   -8.245938185060e-05
   149   -1.543003599404e-04
   150    2.277992982031e-04
   151    3.238410235438e-10
   152    5.638780141885e-16
   153    3.201610077812e-04
   154    2.478537394807e-03
   155    1.236414298607e-02
   156    4.244958859124e-02
   157    1.002880766618e-01
   158    3.664121313514e-02
   159    1.342235754558e-01
   160   -5.772179371152e-05
   161    3.101134759668e-05
   162   -1.423910056875e-15
   163    5.265215486901e-04
   164   -4.880775032095e-04
   165    3.813531639135e-04
   166    2.031042478039e-15
   167    3.472884392744e-04
   168    3.915153011951e-04
   169   -1.377478282825e-04
   170   -5.659414336211e-15
   171   -3.722444124367e-04
   172   -3.957115736945e-04
   173    1.479326073378e-04
   174    6.814237444178e-14
   175   -2.142798467222e-05
   176    2.273818758847e-05
   177   -5.616337972034e-05
   178   -9.993983128802e-13
   179   -5.388961345557e-05
   180    1.115354163935e-16
   181   -4.027785048026e-16
   182   -2.711022353723e-04
   183   -2.317626870882e-04
   184    1.203177183588e-04
   185    1.461486899703e-04
   186   -4.122748425322e-05
   187   -7.714911927405e-05
   188    1.010338992052e-05
   189    1.256863427189e-04
   190   -4.546483687694e-16
   191   -3.201667616911e-04
   192   -2.478581938880e-03
   193   -1.236436519344e-02
   194   -4.245035149103e-02
   195   -1.002898790310e-01
   196   -3.664187170727e-02
   197   -1.342259876910e-01
   198   -5.772144676127e-05
   199   -3.101112076332e-05
   200    2.006520309317e-16
   201   -5.265310288095e-04
   202   -4.880735457135e-04
   203   -3.813526514243e-04
   204   -1.667365227739e-15
   205   -3.472946869466e-04
   206    3.915138716518e-04
   207    1.377454074776e-04
   208    9.473439159396e-15
   209    3.722512369214e-04
   210   -3.957099908544e-04
   211   -1.479302781916e-04
   212   -7.109748449270e-14
   213    2.142837518618e-05
   214    2.273760614501e-05
   215    5.616382303401e-05
   216    9.965526301536e-13
   217    5.389058014035e-05
   218    1.221631676413e-16
   219    7.506311810389e-16
   220    2.710998254993e-04
   221   -2.317626436765e-04
   222   -1.203198806599e-04
   223   -1.461513120270e-04
   224    4.122820774287e-05
   225    7.715048845837e-05
   226    1.010469311664e-05
   227   -1.256879524735e-04
   228    4.149066993592e-16
Sym=X
Ene= -0.132331
Spin=Alpha
Occup=1
     1    3.394794197726e-10
     2    1.127415287089e-09
     3   -2.052239396409e-09
     4    3.260606798280e-10
     5   -8.033099553935e-10
     6   -2.942378403078e-05
     7   -8.675535837901e-16
     8   -3.851192490572e-11
     9   -2.984337936055e-10
    10   -1.487707798853e-09
    11   -5.118955905430e-09
    12   -1.207042797330e-08
    13   -5.307778095046e-09
    14   -1.655776870356e-08
    15   -4.496173355296e-10
    16   -1.198917793056e-04
    17   -1.651278032983e-16
    18    4.832514622250e-09
    19   -3.553194241762e-09
    20   -4.141522351961e-04
    21    1.349987892691e-15
    22   -4.013591458404e-09
    23    2.412886594803e-09
    24    1.364688063720e-04
    25    8.849916746144e-16
    26    5.970253250994e-09
    27   -6.319115397291e-10
    28   -1.580772454359e-04
    29   -6.371541972019e-15
    30    1.697902908500e-10
    31   -5.352121046585e-10
    32    1.362948311718e-04
    33    1.305847015565e-13
    34   -1.895795276036e-10
    35    3.452334194003e-16
    36   -1.087270484503e-15
    37   -1.578356918953e-09
    38    2.238848040700e-04
    39   -5.547102531630e-04
    40   -4.294430631819e-03
    41   -2.142193167427e-02
    42   -7.355126912936e-02
    43   -1.737393872280e-01
    44   -6.347052534420e-02
    45   -2.326613276018e-01
    46   -9.105412304465e-05
    47   -3.781743717263e-05
    48   -1.470710470140e-15
    49   -6.373375615573e-04
    50   -2.080523511116e-04
    51    5.379878815114e-05
    52    8.197752820475e-16
    53   -7.075119348044e-04
    54    2.110516856225e-04
    55    2.290822261474e-04
    56    2.698774793171e-15
    57    7.827471303587e-04
    58   -1.372235973440e-04
    59   -7.959970185688e-05
    60    1.194832409786e-14
    61    5.385398840093e-05