[Molden Format]
[Atoms] (Angs)
  H      1    1      2.47503475      0.00000000     -0.00000000
  C      2    6      1.39359294      0.00000000     -0.00000000
  C      3    6      0.69679647      1.20688689      0.00000000
  H      4    1      1.23751738      2.14344297      0.00000000
  C      5    6     -0.69679647      1.20688689      0.00000000
  H      6    1     -1.23751738      2.14344297      0.00000000
  C      7    6     -1.39359294     -0.00000000      0.00000000
  H      8    1     -2.47503475     -0.00000000      0.00000000
  C      9    6     -0.69679647     -1.20688689     -0.00000000
  H     10    1     -1.23751738     -2.14344297     -0.00000000
  C     11    6      0.69679647     -1.20688689     -0.00000000
  H     12    1      1.23751738     -2.14344297     -0.00000000
[GTO]
1    0
S    3    1.000000
   3.38650000E+01    2.54938000E-02 
   5.09479000E+00    1.90373000E-01 
   1.15879000E+00    8.52161000E-01 
S    1    1.000000
   3.25840000E-01    1.00000000E+00 
S    1    1.000000
   1.02741000E-01    1.00000000E+00 
S    1    1.000000
   3.60000000E-02    1.00000000E+00 
P    1    1.000000
   7.50000000E-01    1.00000000E+00 

2    0
S    1    1.000000
   4.56324000E+03    1.96665000E-03 
S    1    1.000000
   6.82024000E+02    1.52306000E-02 
S    1    1.000000
   1.54973000E+02    7.61269000E-02 
S    1    1.000000
   4.44553000E+01    2.60801000E-01 
S    1    1.000000
   1.30290000E+01    6.16462000E-01 
S    1    1.000000
   1.82773000E+00    2.21006000E-01 
SP   3    1.000000
   2.09642000E+01    1.14660000E-01   4.02487000E-02 
   4.80331000E+00    9.19999000E-01   2.37594000E-01 
   1.45933000E+00   -3.03068000E-03   8.15854000E-01 
SP   1    1.000000
   4.83456000E-01    1.00000000E+00   1.00000000E+00 
SP   1    1.000000
   1.45585000E-01    1.00000000E+00   1.00000000E+00 
SP   1    1.000000
   4.38000000E-02    1.00000000E+00   1.00000000E+00 
SP   1    1.000000
   1.31927711E-02    1.00000000E+00   1.00000000E+00 
D    1    1.000000
   6.26000000E-01    1.00000000E+00 

3    0
S    1    1.000000
   4.56324000E+03    1.96665000E-03 
S    1    1.000000
   6.82024000E+02    1.52306000E-02 
S    1    1.000000
   1.54973000E+02    7.61269000E-02 
S    1    1.000000
   4.44553000E+01    2.60801000E-01 
S    1    1.000000
   1.30290000E+01    6.16462000E-01 
S    1    1.000000
   1.82773000E+00    2.21006000E-01 
SP   3    1.000000
   2.09642000E+01    1.14660000E-01   4.02487000E-02 
   4.80331000E+00    9.19999000E-01   2.37594000E-01 
   1.45933000E+00   -3.03068000E-03   8.15854000E-01 
SP   1    1.000000
   4.83456000E-01    1.00000000E+00   1.00000000E+00 
SP   1    1.000000
   1.45585000E-01    1.00000000E+00   1.00000000E+00 
SP   1    1.000000
   4.38000000E-02    1.00000000E+00   1.00000000E+00 
SP   1    1.000000
   1.31927711E-02    1.00000000E+00   1.00000000E+00 
D    1    1.000000
   6.26000000E-01    1.00000000E+00 

4    0
S    3    1.000000
   3.38650000E+01    2.54938000E-02 
   5.09479000E+00    1.90373000E-01 
   1.15879000E+00    8.52161000E-01 
S    1    1.000000
   3.25840000E-01    1.00000000E+00 
S    1    1.000000
   1.02741000E-01    1.00000000E+00 
S    1    1.000000
   3.60000000E-02    1.00000000E+00 
P    1    1.000000
   7.50000000E-01    1.00000000E+00 

5    0
S    1    1.000000
   4.56324000E+03    1.96665000E-03 
S    1    1.000000
   6.82024000E+02    1.52306000E-02 
S    1    1.000000
   1.54973000E+02    7.61269000E-02 
S    1    1.000000
   4.44553000E+01    2.60801000E-01 
S    1    1.000000
   1.30290000E+01    6.16462000E-01 
S    1    1.000000
   1.82773000E+00    2.21006000E-01 
SP   3    1.000000
   2.09642000E+01    1.14660000E-01   4.02487000E-02 
   4.80331000E+00    9.19999000E-01   2.37594000E-01 
   1.45933000E+00   -3.03068000E-03   8.15854000E-01 
SP   1    1.000000
   4.83456000E-01    1.00000000E+00   1.00000000E+00 
SP   1    1.000000
   1.45585000E-01    1.00000000E+00   1.00000000E+00 
SP   1    1.000000
   4.38000000E-02    1.00000000E+00   1.00000000E+00 
SP   1    1.000000
   1.31927711E-02    1.00000000E+00   1.00000000E+00 
D    1    1.000000
   6.26000000E-01    1.00000000E+00 

6    0
S    3    1.000000
   3.38650000E+01    2.54938000E-02 
   5.09479000E+00    1.90373000E-01 
   1.15879000E+00    8.52161000E-01 
S    1    1.000000
   3.25840000E-01    1.00000000E+00 
S    1    1.000000
   1.02741000E-01    1.00000000E+00 
S    1    1.000000
   3.60000000E-02    1.00000000E+00 
P    1    1.000000
   7.50000000E-01    1.00000000E+00 

7    0
S    1    1.000000
   4.56324000E+03    1.96665000E-03 
S    1    1.000000
   6.82024000E+02    1.52306000E-02 
S    1    1.000000
   1.54973000E+02    7.61269000E-02 
S    1    1.000000
   4.44553000E+01    2.60801000E-01 
S    1    1.000000
   1.30290000E+01    6.16462000E-01 
S    1    1.000000
   1.82773000E+00    2.21006000E-01 
SP   3    1.000000
   2.09642000E+01    1.14660000E-01   4.02487000E-02 
   4.80331000E+00    9.19999000E-01   2.37594000E-01 
   1.45933000E+00   -3.03068000E-03   8.15854000E-01 
SP   1    1.000000
   4.83456000E-01    1.00000000E+00   1.00000000E+00 
SP   1    1.000000
   1.45585000E-01    1.00000000E+00   1.00000000E+00 
SP   1    1.000000
   4.38000000E-02    1.00000000E+00   1.00000000E+00 
SP   1    1.000000
   1.31927711E-02    1.00000000E+00   1.00000000E+00 
D    1    1.000000
   6.26000000E-01    1.00000000E+00 

8    0
S    3    1.000000
   3.38650000E+01    2.54938000E-02 
   5.09479000E+00    1.90373000E-01 
   1.15879000E+00    8.52161000E-01 
S    1    1.000000
   3.25840000E-01    1.00000000E+00 
S    1    1.000000
   1.02741000E-01    1.00000000E+00 
S    1    1.000000
   3.60000000E-02    1.00000000E+00 
P    1    1.000000
   7.50000000E-01    1.00000000E+00 

9    0
S    1    1.000000
   4.56324000E+03    1.96665000E-03 
S    1    1.000000
   6.82024000E+02    1.52306000E-02 
S    1    1.000000
   1.54973000E+02    7.61269000E-02 
S    1    1.000000
   4.44553000E+01    2.60801000E-01 
S    1    1.000000
   1.30290000E+01    6.16462000E-01 
S    1    1.000000
   1.82773000E+00    2.21006000E-01 
SP   3    1.000000
   2.09642000E+01    1.14660000E-01   4.02487000E-02 
   4.80331000E+00    9.19999000E-01   2.37594000E-01 
   1.45933000E+00   -3.03068000E-03   8.15854000E-01 
SP   1    1.000000
   4.83456000E-01    1.00000000E+00   1.00000000E+00 
SP   1    1.000000
   1.45585000E-01    1.00000000E+00   1.00000000E+00 
SP   1    1.000000
   4.38000000E-02    1.00000000E+00   1.00000000E+00 
SP   1    1.000000
   1.31927711E-02    1.00000000E+00   1.00000000E+00 
D    1    1.000000
   6.26000000E-01    1.00000000E+00 

10    0
S    3    1.000000
   3.38650000E+01    2.54938000E-02 
   5.09479000E+00    1.90373000E-01 
   1.15879000E+00    8.52161000E-01 
S    1    1.000000
   3.25840000E-01    1.00000000E+00 
S    1    1.000000
   1.02741000E-01    1.00000000E+00 
S    1    1.000000
   3.60000000E-02    1.00000000E+00 
P    1    1.000000
   7.50000000E-01    1.00000000E+00 

11    0
S    1    1.000000
   4.56324000E+03    1.96665000E-03 
S    1    1.000000
   6.82024000E+02    1.52306000E-02 
S    1    1.000000
   1.54973000E+02    7.61269000E-02 
S    1    1.000000
   4.44553000E+01    2.60801000E-01 
S    1    1.000000
   1.30290000E+01    6.16462000E-01 
S    1    1.000000
   1.82773000E+00    2.21006000E-01 
SP   3    1.000000
   2.09642000E+01    1.14660000E-01   4.02487000E-02 
   4.80331000E+00    9.19999000E-01   2.37594000E-01 
   1.45933000E+00   -3.03068000E-03   8.15854000E-01 
SP   1    1.000000
   4.83456000E-01    1.00000000E+00   1.00000000E+00 
SP   1    1.000000
   1.45585000E-01    1.00000000E+00   1.00000000E+00 
SP   1    1.000000
   4.38000000E-02    1.00000000E+00   1.00000000E+00 
SP   1    1.000000
   1.31927711E-02    1.00000000E+00   1.00000000E+00 
D    1    1.000000
   6.26000000E-01    1.00000000E+00 

12    0
S    3    1.000000
   3.38650000E+01    2.54938000E-02 
   5.09479000E+00    1.90373000E-01 
   1.15879000E+00    8.52161000E-01 
S    1    1.000000
   3.25840000E-01    1.00000000E+00 
S    1    1.000000
   1.02741000E-01    1.00000000E+00 
S    1    1.000000
   3.60000000E-02    1.00000000E+00 
P    1    1.000000
   7.50000000E-01    1.00000000E+00 

[MO]
Sym=X
Ene= -0.003288
Spin=Alpha
Occup=1
     1   -5.972643099901e-05
     2   -1.530059332545e-04
     3    2.270833886368e-04
     4   -3.241037884250e-05
     5    1.078874383311e-04
     6   -2.656570303004e-10
     7   -3.667753028753e-17
     8   -5.771506767130e-05
     9   -4.467838537948e-04
    10   -2.228804565626e-03
    11   -7.651250122179e-03
    12   -1.807583323901e-02
    13   -6.500340827519e-03
    14   -2.416112049689e-02
    15    4.260425113126e-05
    16   -1.094248784979e-09
    17    3.497507712102e-16
    18   -6.249807826265e-04
    19    4.012577403036e-04
    20   -3.758033085936e-09
    21    1.114291419049e-15
    22    3.691285656246e-04
    23   -2.350500456374e-04
    24    1.235418904021e-09
    25   -1.168366447788e-15
    26   -6.039601058491e-04
    27    6.124532408797e-05
    28   -1.470632288479e-09
    29    7.623700737511e-15
    30   -1.411478979310e-05
    31    4.845644672400e-05
    32    1.236262186101e-09
    33   -1.253710660526e-13
    34    3.013753095864e-05
    35    7.949280035683e-16
    36    8.557964053884e-16
    37    1.783517082632e-04
    38    2.030059655485e-09
    39   -5.530229463688e-04
    40   -4.281335881987e-03
    41   -2.135672130140e-02
    42   -7.332611889237e-02
    43   -1.732099538693e-01
    44   -6.317398374614e-02
    45   -2.319073948454e-01
    46    3.270850225517e-05
    47   -5.039689232118e-05
    48   -1.510531916374e-15
    49   -1.194071976738e-03
    50    3.351123574009e-04
    51    2.106407596216e-04
    52    1.603728110180e-15
    53   -2.626145493234e-04
    54   -3.460349480638e-05
    55    6.191612772255e-05
    56   -3.682480014570e-16
    57    9.495957848161e-05
    58    3.033170287670e-05
    59   -8.860898544730e-05
    60   -4.949018298043e-15
    61    3.397198295316e-05
    62   -8.704764940250e-05
    63   -2.907512694092e-05
    64    1.367816204122e-13
    65    9.505696463019e-05
    66   -9.808806090268e-16
    67    5.122835887070e-16
    68   -1.655531487984e-04
    69    8.684281549018e-05
    70   -2.260414046779e-04
    71   -3.356019306363e-04
    72    1.815102739225e-04
    73    2.626862112037e-05
    74    1.283778075648e-04
    75    1.960848015650e-04
    76    1.988664572027e-16
    77   -5.530128062898e-04
    78   -4.281257379972e-03
    79   -2.135632970931e-02
    80   -7.332477437682e-02
    81   -1.732067779185e-01
    82   -6.317282360048e-02
    83   -2.319031417763e-01
    84   -3.271021268102e-05
    85   -5.039620361943e-05
    86    4.820463407043e-16
    87   -1.194060373900e-03
    88   -3.351161237811e-04
    89    2.106397762186e-04
    90    9.258744100454e-16
    91   -2.626015891468e-04
    92    3.460733311002e-05
    93    6.191192530106e-05
    94    7.289525524506e-18
    95    9.494500094921e-05
    96   -3.033419934876e-05
    97   -8.860737680843e-05
    98    6.100203276973e-15
    99    3.397097240177e-05
   100    8.704752720905e-05
   101   -2.907243215337e-05
   102   -1.488197399117e-13
   103    9.505563517431e-05
   104   -3.869773295573e-16
   105   -4.669680260882e-16
   106   -1.655551248452e-04
   107   -8.684215309918e-05
   108   -2.260380014852e-04
   109   -3.355981831720e-04
   110    1.815111862765e-04
   111    2.626736306652e-05
   112   -1.283767486628e-04
   113    1.960824283361e-04
   114    6.607362596990e-16
   115   -5.771506237415e-05
   116   -4.467838127913e-04
   117   -2.228804361070e-03
   118   -7.651249419912e-03
   119   -1.807583157970e-02
   120   -6.500340221267e-03
   121   -2.416111827701e-02
   122   -4.260425054387e-05
   123    1.100345531679e-09
   124    9.237041395855e-16
   125   -6.249807715714e-04
   126   -4.012577379163e-04
   127    3.815008787541e-09
   128   -1.045650242951e-15
   129    3.691285603173e-04
   130    2.350500397535e-04
   131   -1.273424122726e-09
   132   -4.164146157836e-16
   133   -6.039601201606e-04
   134   -6.124532521045e-05
   135    1.510890373665e-09
   136   -4.481196158121e-16
   137   -1.411479046459e-05
   138   -4.845644717275e-05
   139   -1.240609410084e-09
   140    1.347274277311e-13
   141    3.013752994477e-05
   142   -3.058706632152e-16
   143    8.890294198291e-16
   144    1.783517061371e-04
   145    2.062642341915e-09
   146   -5.972642877438e-05
   147   -1.530059314550e-04
   148    2.270833861267e-04
   149   -3.241037942674e-05
   150   -1.078874361568e-04
   151    2.706911261376e-10
   152   -2.879753398940e-16
   153   -5.530229844237e-04
   154   -4.281336176595e-03
   155   -2.135672277104e-02
   156   -7.332612393802e-02
   157   -1.732099657900e-01
   158   -6.317398810134e-02
   159   -2.319074107989e-01
   160   -3.270850583797e-05
   161    5.039689395771e-05
   162    1.737416591870e-15
   163   -1.194072041546e-03
   164   -3.351123942523e-04
   165   -2.106407513155e-04
   166   -2.667476112404e-15
   167   -2.626145796595e-04
   168    3.460351474425e-05
   169   -6.191614140840e-05
   170    4.349432094831e-15
   171    9.495962493753e-05
   172   -3.033172221911e-05
   173    8.860900762804e-05
   174   -1.300896110840e-15
   175    3.397198566635e-05
   176    8.704765387734e-05
   177    2.907512948711e-05
   178   -1.239224064435e-13
   179    9.505697116615e-05
   180   -7.782797461785e-17
   181    2.974476101338e-16
   182   -1.655531710760e-04
   183    8.684281279705e-05
   184   -2.260414191956e-04
   185   -3.356019474476e-04
   186    1.815102811139e-04
   187    2.626863088018e-05
   188   -1.283778172454e-04
   189   -1.960848119530e-04
   190   -1.166600865731e-15
   191   -5.530128575128e-04
   192   -4.281257776516e-03
   193   -2.135633168746e-02
   194   -7.332478116840e-02
   195   -1.732067939636e-01
   196   -6.317282946251e-02
   197   -2.319031632517e-01
   198    3.271021419105e-05
   199    5.039620558662e-05
   200   -7.292120975875e-16
   201   -1.194060455723e-03
   202    3.351161482698e-04
   203   -2.106397768796e-04
   204    1.499632676395e-16
   205   -2.626016558438e-04
   206   -3.460733539951e-05
   207   -6.191194907988e-05
   208   -4.118722677883e-16
   209    9.494506324403e-05
   210    3.033420517762e-05
   211    8.860739150441e-05
   212   -6.196337397628e-15
   213    3.397097575430e-05
   214   -8.704753158047e-05
   215    2.907243631879e-05
   216    1.262808588531e-13
   217    9.505564368755e-05
   218    1.525397065681e-15
   219    2.320713648730e-16
   220   -1.655551398910e-04
   221   -8.684215524442e-05
   222   -2.260380205252e-04
   223   -3.355982070494e-04
   224    1.815111904464e-04
   225    2.626737471982e-05
   226    1.283767592213e-04
   227   -1.960824429332e-04
   228    4.859534989367e-16
Sym=X
Ene= -0.117327
Spin=Alpha
Occup=1
     1   -2.796552818251e-10
     2    5.161973890321e-10
     3    2.882001826006e-09
     4    1.358160134496e-09
     5    4.124146325042e-10
     6   -6.246146465398e-05
     7    9.227278274281e-16
     8   -3.647917305458e-11
     9   -2.814174023538e-10
    10   -1.409920257083e-09
    11   -4.810309577122e-09
    12   -1.158493945309e-08
    13   -4.245369177224e-09
    14   -1.438072892025e-08
    15    7.793504086788e-10
    16   -7.562596368290e-05
    17    6.093032438761e-17
    18   -2.981344330911e-09
    19    1.304205632250e-09
    20   -7.082496766539e-04
    21   -2.710481761800e-16
    22    1.299196049874e-08
    23   -8.484754614861e-09
    24    4.710426453855e-04
    25    2.144984584456e-16
    26    2.881068234437e-09
    27   -1.985026840535e-09
    28   -4.811188329193e-04
    29    1.807367310982e-14
    30    2.170633400547e-10
    31   -2.512016321593e-10
    32    5.516399023897e-05
    33   -9.840092224410e-14
    34    1.654425136074e-10
    35   -8.772426285375e-16
    36    4.781619578625e-16
    37    1.369535883075e-09
    38    4.049092442435e-04
    39   -5.545421440084e-04
    40   -4.293006979444e-03
    41   -2.141559463415e-02
    42   -7.352577390236e-02
    43   -1.737062405932e-01
    44   -6.346524529777e-02
    45   -2.324849920164e-01
    46    3.101086341912e-05
    47   -2.191283648653e-05
    48    5.751822093475e-16
    49   -9.119732776263e-04
    50    3.813503269607e-04
    51   -4.772519158446e-05
    52   -1.490773845512e-15
    53   -6.015299606424e-04
    54   -1.377442102833e-04
    55    2.324584660491e-04
    56    2.862819208470e-15
    57    6.447537877534e-04
    58    1.479293781542e-04
    59   -2.248933797818e-04
    60   -1.581529267847e-14
    61    3.711480087898e-05
    62   -5.616351346819e-05
    63   -4.211455596086e-05
    64    9.965356681282e-14
    65    9.334069349311e-05
    66    5.570262382638e-16
    67   -3.566738869537e-16
    68   -2.317612121813e-04
    69   -3.483388228985e-06
    70   -2.083990136516e-04
    71   -2.531401781084e-04
    72    7.140876144335e-05
    73    1.336277439616e-04
    74    1.256872387529e-04
    75    1.552357901725e-04
    76    3.852873540747e-16
    77   -5.545321678489e-04
    78   -4.292929746648e-03
    79   -2.141520937183e-02
    80   -7.352445112588e-02
    81   -1.737031159521e-01
    82   -6.346410382049e-02
    83   -2.324808077645e-01
    84   -3.101231180531e-05
    85   -2.191177010855e-05
    86    5.649371669742e-16
    87   -9.119627154041e-04
    88   -3.813557380539e-04
    89   -4.772848153529e-05
    90   -7.958847281359e-16
    91   -6.014931235412e-04
    92    1.377575336885e-04
    93    2.324438179916e-04
    94    3.422850447339e-16
    95    6.447481394314e-04
    96   -1.479322038701e-04
    97   -2.248970127780e-04
    98    1.782971353499e-14
    99    3.711457035769e-05
   100    5.616360960160e-05
   101   -4.211373833795e-05
   102   -8.130663989898e-14
   103    9.333932971994e-05
   104    6.215782549204e-16
   105   -4.052026363860e-16
   106   -2.317647010426e-04
   107    3.484613051743e-06
   108   -2.083957945886e-04
   109   -2.531345419236e-04
   110    7.141318973133e-05
   111    1.336280187075e-04
   112   -1.256863473758e-04
   113    1.552331224409e-04
   114    4.787301085810e-16
   115   -4.076481488750e-11
   116   -3.165871689758e-10
   117   -1.573126536102e-09
   118   -5.431673019638e-09
   119   -1.260854928767e-08
   120   -4.578952317066e-09
   121   -1.801154839823e-08
   122    7.833367965480e-10
   123   -7.562596312139e-05
   124    4.073313106403e-16
   125    2.816476048312e-09
   126    1.256626226120e-09
   127   -7.082496747559e-04
   128   -4.068673220768e-16
   129   -1.303058907329e-08
   130   -8.490523557016e-09
   131    4.710426452001e-04
   132    3.473001312448e-15
   133   -2.852658548176e-09
   134   -1.970982738837e-09
   135   -4.811188462452e-04
   136   -2.246025885245e-14
   137   -2.110396785515e-10
   138   -2.414940277782e-10
   139    5.516398998183e-05
   140    5.962384406198e-14
   141   -1.522123872328e-10
   142    4.549397385861e-16
   143   -3.264682640593e-16
   144   -1.348038019551e-09
   145   -4.049092432224e-04
   146    2.482214889553e-10
   147   -5.626239396878e-10
   148   -2.856929190142e-09
   149   -1.351817949650e-09
   150    3.800361119397e-10
   151   -6.246146453465e-05
   152    1.045019366393e-15
   153    5.545421007651e-04
   154    4.293006644660e-03
   155    2.141559296413e-02
   156    7.352576816860e-02
   157    1.737062270489e-01
   158    6.346524036366e-02
   159    2.324849738848e-01
   160    3.101086674134e-05
   161   -2.191283935885e-05
   162   -1.496355738170e-15
   163    9.119731517037e-04
   164    3.813503140412e-04
   165   -4.772524304581e-05
   166    4.378939916278e-15
   167    6.015299659952e-04
   168   -1.377442085533e-04
   169    2.324584796178e-04
   170   -7.171231803566e-15
   171   -6.447538235163e-04
   172    1.479293954189e-04
   173   -2.248933898730e-04
   174    2.853010174521e-14
   175   -3.711479962299e-05
   176   -5.616351606479e-05
   177   -4.211455282003e-05
   178   -6.157360648636e-14
   179   -9.334068476212e-05
   180   -6.565913752069e-16
   181   -2.473882268752e-17
   182    2.317612075809e-04
   183    3.483411957183e-06
   184    2.083989936413e-04
   185    2.531401441431e-04
   186   -7.140873367953e-05
   187   -1.336277441146e-04
   188    1.256872277982e-04
   189    1.552357690959e-04
   190    5.802358054988e-16
   191    5.545321296805e-04
   192    4.292929451163e-03
   193    2.141520789783e-02
   194    7.352444606515e-02
   195    1.737031039976e-01
   196    6.346409946719e-02
   197    2.324807917618e-01
   198   -3.101231428071e-05
   199   -2.191177330701e-05
   200    4.538430715827e-16
   201    9.119625952700e-04
   202   -3.813557231826e-04
   203   -4.772853250176e-05
   204   -5.400249468487e-16
   205    6.014931354761e-04
   206    1.377575292496e-04
   207    2.324438331310e-04
   208    6.675322789930e-15
   209   -6.447481884762e-04
   210   -1.479321936970e-04
   211   -2.248970132525e-04
   212   -2.517782058220e-14
   213   -3.711457029142e-05
   214    5.616361291308e-05
   215   -4.211373530866e-05
   216    7.826159108473e-14
   217   -9.333932165673e-05
   218   -1.204231495836e-15
   219    7.240244446466e-16
   220    2.317646954524e-04
   221   -3.484636448256e-06
   222    2.083957762578e-04
   223    2.531345099006e-04
   224   -7.141316202029e-05
   225   -1.336280222261e-04
   226   -1.256863369270e-04
   227    1.552331025552e-04
   228    8.056626891447e-16
Sym=X
Ene= -0.134309
Spin=Alpha
Occup=1
     1    1.889486543599e-04
     2    3.427269642771e-04
     3    3.014605334825e-04
     4    3.450785681146e-05
     5   -1.593497177845e-04
     6    3.650818869327e-10
     7    4.635590664796e-16
     8    5.956045532491e-04
     9    4.611025187019e-03
    10    2.300121221451e-02
    11    7.897368791072e-02
    12    1.865476032832e-01
    13    6.815383571714e-02
    14    2.498213489026e-01
    15    1.070335641581e-04
    16    4.803792937339e-10
    17    1.522125513307e-15
    18    5.969114596180e-04
    19    8.597702351785e-06
    20    4.090141577039e-09
    21   -2.794819420385e-15
    22    2.361737211139e-03
    23   -1.261672476094e-03
    24   -2.729612606750e-09
    25    2.649834481954e-15
    26   -3.039922971277e-04
    27   -1.299801516523e-04
    28    2.769088134494e-09
    29   -4.526126220560e-14
    30   -1.115533993248e-05
    31    3.640372348601e-05
    32   -3.124687523601e-10
    33    1.006828480011e-12
    34   -7.944270645569e-05
    35   -5.495447046132e-17
    36   -2.423664402008e-16
    37    5.812498061067e-05
    38   -2.354886936151e-09
    39   -3.611349902584e-04
    40   -2.795871044031e-03
    41   -1.394634565572e-02
    42   -4.788577826254e-02
    43   -1.131017402451e-01
    44   -4.131968331031e-02
    45   -1.515228609950e-01
    46   -3.893740140287e-05
    47   -9.941682744767e-05
    48   -1.977803166395e-15
    49   -2.113127941981e-04
    50    9.379588372826e-05
    51   -1.369949333514e-04
    52    5.216044138113e-15
    53   -2.107405994057e-03
    54    5.165992555225e-04
    55    1.093937082607e-03
    56   -7.825432212192e-15
    57    3.137792481930e-05
    58    1.786123914691e-04
    59    1.059440963800e-04
    60    5.628620346590e-14
    61   -4.537509460889e-06
    62   -1.465405924699e-05
    63   -2.057811539538e-06
    64   -1.037565357329e-12
    65    3.997665637689e-05
    66   -4.821704363282e-16
    67   -6.301703656728e-16
    68   -2.120829553273e-05
    69   -1.344653107682e-04
    70   -1.008340173335e-04
    71   -2.356954178544e-04
    72   -3.316543642360e-04
    73   -9.100832668913e-05
    74    4.940334069655e-05
    75    5.915985260353e-05
    76    6.589507723194e-16
    77    3.611414818905e-04
    78    2.795921299215e-03
    79    1.394659635280e-02
    80    4.788663897570e-02
    81    1.131037736976e-01
    82    4.132042630425e-02
    83    1.515255825162e-01
    84   -3.893700659182e-05
    85    9.941708743806e-05
    86    1.242937728543e-16
    87    2.113235174793e-04
    88    9.380032905302e-05
    89    1.369954800530e-04
    90    7.569643459689e-17
    91    2.107413013667e-03
    92    5.165976604880e-04
    93   -1.093939804897e-03
    94    5.689490774244e-15
    95   -3.138539223751e-05
    96    1.786141044953e-04
    97   -1.059414830887e-04
    98   -5.215134242218e-14
    99    4.537078269272e-06
   100   -1.465471683277e-05
   101    2.058301045913e-06
   102    1.026761870010e-12
   103   -3.997775388201e-05
   104    2.028901894025e-16
   105   -2.462842558604e-16
   106    2.121101038317e-05
   107   -1.344653461804e-04
   108    1.008364588295e-04
   109    2.356983810954e-04
   110    3.316535368560e-04
   111    9.100676950065e-05
   112    4.940481307359e-05
   113   -5.916166845333e-05
   114    2.807293044827e-16
   115   -5.956045610136e-04
   116   -4.611025247110e-03
   117   -2.300121251431e-02
   118   -7.897368894003e-02
   119   -1.865476057146e-01
   120   -6.815383660505e-02
   121   -2.498213521584e-01
   122    1.070335650791e-04
   123    4.944535599113e-10
   124    7.248624468415e-16
   125   -5.969114704841e-04
   126    8.597701707431e-06
   127    4.138201469276e-09
   128   -3.998888751873e-16
   129   -2.361737219604e-03
   130   -1.261672479270e-03
   131   -2.745946348117e-09
   132    1.288301315112e-15
   133    3.039923120341e-04
   134   -1.299801474107e-04
   135    2.802529690010e-09
   136    3.630288070797e-14
   137    1.115534118125e-05
   138    3.640372600013e-05
   139   -3.285831656834e-10
   140   -9.815377380901e-13
   141    7.944270755244e-05
   142   -1.703462599207e-16
   143   -3.025919083619e-16
   144   -5.812498030826e-05
   145    2.380904255447e-09
   146   -1.889486571109e-04
   147   -3.427269675879e-04
   148   -3.014605331225e-04
   149   -3.450785473641e-05
   150   -1.593497200817e-04
   151    3.685107302940e-10
   152   -4.482528758682e-16
   153    3.611349276763e-04
   154    2.795870559529e-03
   155    1.394634323888e-02
   156    4.788576996443e-02
   157    1.131017206437e-01
   158    4.131967614978e-02
   159    1.515228347462e-01
   160   -3.893739009790e-05
   161   -9.941682398420e-05
   162   -9.078260152781e-16
   163    2.113127203065e-04
   164    9.379591015883e-05
   165   -1.369949427812e-04
   166   -2.985636382287e-17
   167    2.107405915645e-03
   168    5.165992313738e-04
   169    1.093937057998e-03
   170   -2.158037014919e-15
   171   -3.137783628863e-05
   172    1.786123964637e-04
   173    1.059441126375e-04
   174   -2.651886657912e-14
   175    4.537515721587e-06
   176   -1.465406072179e-05
   177   -2.057793551970e-06
   178    9.524948432665e-13
   179   -3.997664809206e-05
   180    2.292171602406e-16
   181    4.835001406908e-16
   182    2.120830944355e-05
   183    1.344653165644e-04
   184    1.008339961811e-04
   185    2.356953942877e-04
   186    3.316543594432e-04
   187    9.100833475264e-05
   188    4.940333425179e-05
   189    5.915983754310e-05
   190    9.324632839058e-16
   191   -3.611414156022e-04
   192   -2.795920786037e-03
   193   -1.394659379289e-02
   194   -4.788663018638e-02
   195   -1.131037529359e-01
   196   -4.132041871911e-02
   197   -1.515255547132e-01
   198   -3.893699665938e-05
   199    9.941708216114e-05
   200    3.817861901249e-17
   201   -2.113234432348e-04
   202    9.380035088174e-05
   203    1.369954831265e-04
   204   -5.727848081947e-16
   205   -2.107412927321e-03
   206    5.165976365229e-04
   207   -1.093939775870e-03
   208   -2.769437257181e-16
   209    3.138528720323e-05
   210    1.786141085849e-04
   211   -1.059415044328e-04
   212    3.185975820774e-14
   213   -4.537085594379e-06
   214   -1.465471410590e-05
   215    2.058282961486e-06
   216   -9.680521795024e-13
   217    3.997774526047e-05
   218   -2.475937744356e-17
   219   -2.614769181484e-16
   220   -2.121102164771e-05
   221    1.344653488148e-04
   222   -1.008364367169e-04
   223   -2.356983571122e-04
   224   -3.316535303316e-04
   225   -9.100677944710e-05
   226    4.940480604657e-05
   227   -5.916165339969e-05
   228   -2.394967185414e-17
Sym=X
Ene= -0.231346
Spin=Alpha
Occup=1
     1    3.391876896756e-10
     2    1.127094982209e-09
     3   -2.052319374836e-09
     4    3.261633926828e-10
     5   -8.030887151573e-10
     6   -2.942378403078e-05
     7   -8.675535841736e-16
     8   -3.938073923225e-11
     9   -3.051599396722e-10
    10   -1.521259893542e-09
    11   -5.234155514558e-09
    12   -1.234254712392e-08
    13   -5.407188823935e-09
    14   -1.692217432376e-08
    15   -4.497399434123e-10
    16   -1.198917793056e-04
    17   -1.651278067168e-16
    18    4.831516490312e-09
    19   -3.553284191290e-09
    20   -4.141522351960e-04
    21    1.349987896686e-15
    22   -4.014699529850e-09
    23    2.413362570294e-09
    24    1.364688063720e-04
    25    8.849916638764e-16
    26    5.971478496039e-09
    27   -6.321266375674e-10
    28   -1.580772454358e-04
    29   -6.371541948319e-15
    30    1.698745734522e-10
    31   -5.354175430304e-10
    32    1.362948311718e-04
    33    1.305847019114e-13
    34   -1.894656650305e-10
    35    3.452334189000e-16
    36   -1.087270484456e-15
    37   -1.578392641012e-09
    38    2.238848040700e-04
    39   -5.547102527286e-04
    40   -4.294430628456e-03
    41   -2.142193165750e-02
    42   -7.355126907176e-02
    43   -1.737393870920e-01
    44   -6.347052529449e-02
    45   -2.326613274196e-01
    46   -9.105412313596e-05
    47   -3.781743704913e-05
    48   -1.470710467898e-15
    49   -6.373375610582e-04
    50   -2.080523515104e-04
    51    5.379878843335e-05
    52    8.197752760994e-16
    53   -7.075119342504e-04
    54    2.110516856424e-04
    55    2.290822258612e-04
    56    2.698774800428e-15
    57    7.827471297462e-04
    58   -1.372235974511e-04
    59   -7.959970167110e-05
    60    1.194832408729e-14
    61    5.385398835881e-05