[Molden Format]
[Atoms] (Angs)
  H      1    1      2.47503475      0.00000000     -0.00000000
  C      2    6      1.39359294      0.00000000     -0.00000000
  C      3    6      0.69679647      1.20688689      0.00000000
  H      4    1      1.23751738      2.14344297      0.00000000
  C      5    6     -0.69679647      1.20688689      0.00000000
  H      6    1     -1.23751738      2.14344297      0.00000000
  C      7    6     -1.39359294     -0.00000000      0.00000000
  H      8    1     -2.47503475     -0.00000000      0.00000000
  C      9    6     -0.69679647     -1.20688689     -0.00000000
  H     10    1     -1.23751738     -2.14344297     -0.00000000
  C     11    6      0.69679647     -1.20688689     -0.00000000
  H     12    1      1.23751738     -2.14344297     -0.00000000
[GTO]
1    0
S    3    1.000000
   3.38650000E+01    2.54938000E-02 
   5.09479000E+00    1.90373000E-01 
   1.15879000E+00    8.52161000E-01 
S    1    1.000000
   3.25840000E-01    1.00000000E+00 
S    1    1.000000
   1.02741000E-01    1.00000000E+00 
S    1    1.000000
   3.60000000E-02    1.00000000E+00 
P    1    1.000000
   7.50000000E-01    1.00000000E+00 

2    0
S    1    1.000000
   4.56324000E+03    1.96665000E-03 
S    1    1.000000
   6.82024000E+02    1.52306000E-02 
S    1    1.000000
   1.54973000E+02    7.61269000E-02 
S    1    1.000000
   4.44553000E+01    2.60801000E-01 
S    1    1.000000
   1.30290000E+01    6.16462000E-01 
S    1    1.000000
   1.82773000E+00    2.21006000E-01 
SP   3    1.000000
   2.09642000E+01    1.14660000E-01   4.02487000E-02 
   4.80331000E+00    9.19999000E-01   2.37594000E-01 
   1.45933000E+00   -3.03068000E-03   8.15854000E-01 
SP   1    1.000000
   4.83456000E-01    1.00000000E+00   1.00000000E+00 
SP   1    1.000000
   1.45585000E-01    1.00000000E+00   1.00000000E+00 
SP   1    1.000000
   4.38000000E-02    1.00000000E+00   1.00000000E+00 
SP   1    1.000000
   1.31927711E-02    1.00000000E+00   1.00000000E+00 
D    1    1.000000
   6.26000000E-01    1.00000000E+00 

3    0
S    1    1.000000
   4.56324000E+03    1.96665000E-03 
S    1    1.000000
   6.82024000E+02    1.52306000E-02 
S    1    1.000000
   1.54973000E+02    7.61269000E-02 
S    1    1.000000
   4.44553000E+01    2.60801000E-01 
S    1    1.000000
   1.30290000E+01    6.16462000E-01 
S    1    1.000000
   1.82773000E+00    2.21006000E-01 
SP   3    1.000000
   2.09642000E+01    1.14660000E-01   4.02487000E-02 
   4.80331000E+00    9.19999000E-01   2.37594000E-01 
   1.45933000E+00   -3.03068000E-03   8.15854000E-01 
SP   1    1.000000
   4.83456000E-01    1.00000000E+00   1.00000000E+00 
SP   1    1.000000
   1.45585000E-01    1.00000000E+00   1.00000000E+00 
SP   1    1.000000
   4.38000000E-02    1.00000000E+00   1.00000000E+00 
SP   1    1.000000
   1.31927711E-02    1.00000000E+00   1.00000000E+00 
D    1    1.000000
   6.26000000E-01    1.00000000E+00 

4    0
S    3    1.000000
   3.38650000E+01    2.54938000E-02 
   5.09479000E+00    1.90373000E-01 
   1.15879000E+00    8.52161000E-01 
S    1    1.000000
   3.25840000E-01    1.00000000E+00 
S    1    1.000000
   1.02741000E-01    1.00000000E+00 
S    1    1.000000
   3.60000000E-02    1.00000000E+00 
P    1    1.000000
   7.50000000E-01    1.00000000E+00 

5    0
S    1    1.000000
   4.56324000E+03    1.96665000E-03 
S    1    1.000000
   6.82024000E+02    1.52306000E-02 
S    1    1.000000
   1.54973000E+02    7.61269000E-02 
S    1    1.000000
   4.44553000E+01    2.60801000E-01 
S    1    1.000000
   1.30290000E+01    6.16462000E-01 
S    1    1.000000
   1.82773000E+00    2.21006000E-01 
SP   3    1.000000
   2.09642000E+01    1.14660000E-01   4.02487000E-02 
   4.80331000E+00    9.19999000E-01   2.37594000E-01 
   1.45933000E+00   -3.03068000E-03   8.15854000E-01 
SP   1    1.000000
   4.83456000E-01    1.00000000E+00   1.00000000E+00 
SP   1    1.000000
   1.45585000E-01    1.00000000E+00   1.00000000E+00 
SP   1    1.000000
   4.38000000E-02    1.00000000E+00   1.00000000E+00 
SP   1    1.000000
   1.31927711E-02    1.00000000E+00   1.00000000E+00 
D    1    1.000000
   6.26000000E-01    1.00000000E+00 

6    0
S    3    1.000000
   3.38650000E+01    2.54938000E-02 
   5.09479000E+00    1.90373000E-01 
   1.15879000E+00    8.52161000E-01 
S    1    1.000000
   3.25840000E-01    1.00000000E+00 
S    1    1.000000
   1.02741000E-01    1.00000000E+00 
S    1    1.000000
   3.60000000E-02    1.00000000E+00 
P    1    1.000000
   7.50000000E-01    1.00000000E+00 

7    0
S    1    1.000000
   4.56324000E+03    1.96665000E-03 
S    1    1.000000
   6.82024000E+02    1.52306000E-02 
S    1    1.000000
   1.54973000E+02    7.61269000E-02 
S    1    1.000000
   4.44553000E+01    2.60801000E-01 
S    1    1.000000
   1.30290000E+01    6.16462000E-01 
S    1    1.000000
   1.82773000E+00    2.21006000E-01 
SP   3    1.000000
   2.09642000E+01    1.14660000E-01   4.02487000E-02 
   4.80331000E+00    9.19999000E-01   2.37594000E-01 
   1.45933000E+00   -3.03068000E-03   8.15854000E-01 
SP   1    1.000000
   4.83456000E-01    1.00000000E+00   1.00000000E+00 
SP   1    1.000000
   1.45585000E-01    1.00000000E+00   1.00000000E+00 
SP   1    1.000000
   4.38000000E-02    1.00000000E+00   1.00000000E+00 
SP   1    1.000000
   1.31927711E-02    1.00000000E+00   1.00000000E+00 
D    1    1.000000
   6.26000000E-01    1.00000000E+00 

8    0
S    3    1.000000
   3.38650000E+01    2.54938000E-02 
   5.09479000E+00    1.90373000E-01 
   1.15879000E+00    8.52161000E-01 
S    1    1.000000
   3.25840000E-01    1.00000000E+00 
S    1    1.000000
   1.02741000E-01    1.00000000E+00 
S    1    1.000000
   3.60000000E-02    1.00000000E+00 
P    1    1.000000
   7.50000000E-01    1.00000000E+00 

9    0
S    1    1.000000
   4.56324000E+03    1.96665000E-03 
S    1    1.000000
   6.82024000E+02    1.52306000E-02 
S    1    1.000000
   1.54973000E+02    7.61269000E-02 
S    1    1.000000
   4.44553000E+01    2.60801000E-01 
S    1    1.000000
   1.30290000E+01    6.16462000E-01 
S    1    1.000000
   1.82773000E+00    2.21006000E-01 
SP   3    1.000000
   2.09642000E+01    1.14660000E-01   4.02487000E-02 
   4.80331000E+00    9.19999000E-01   2.37594000E-01 
   1.45933000E+00   -3.03068000E-03   8.15854000E-01 
SP   1    1.000000
   4.83456000E-01    1.00000000E+00   1.00000000E+00 
SP   1    1.000000
   1.45585000E-01    1.00000000E+00   1.00000000E+00 
SP   1    1.000000
   4.38000000E-02    1.00000000E+00   1.00000000E+00 
SP   1    1.000000
   1.31927711E-02    1.00000000E+00   1.00000000E+00 
D    1    1.000000
   6.26000000E-01    1.00000000E+00 

10    0
S    3    1.000000
   3.38650000E+01    2.54938000E-02 
   5.09479000E+00    1.90373000E-01 
   1.15879000E+00    8.52161000E-01 
S    1    1.000000
   3.25840000E-01    1.00000000E+00 
S    1    1.000000
   1.02741000E-01    1.00000000E+00 
S    1    1.000000
   3.60000000E-02    1.00000000E+00 
P    1    1.000000
   7.50000000E-01    1.00000000E+00 

11    0
S    1    1.000000
   4.56324000E+03    1.96665000E-03 
S    1    1.000000
   6.82024000E+02    1.52306000E-02 
S    1    1.000000
   1.54973000E+02    7.61269000E-02 
S    1    1.000000
   4.44553000E+01    2.60801000E-01 
S    1    1.000000
   1.30290000E+01    6.16462000E-01 
S    1    1.000000
   1.82773000E+00    2.21006000E-01 
SP   3    1.000000
   2.09642000E+01    1.14660000E-01   4.02487000E-02 
   4.80331000E+00    9.19999000E-01   2.37594000E-01 
   1.45933000E+00   -3.03068000E-03   8.15854000E-01 
SP   1    1.000000
   4.83456000E-01    1.00000000E+00   1.00000000E+00 
SP   1    1.000000
   1.45585000E-01    1.00000000E+00   1.00000000E+00 
SP   1    1.000000
   4.38000000E-02    1.00000000E+00   1.00000000E+00 
SP   1    1.000000
   1.31927711E-02    1.00000000E+00   1.00000000E+00 
D    1    1.000000
   6.26000000E-01    1.00000000E+00 

12    0
S    3    1.000000
   3.38650000E+01    2.54938000E-02 
   5.09479000E+00    1.90373000E-01 
   1.15879000E+00    8.52161000E-01 
S    1    1.000000
   3.25840000E-01    1.00000000E+00 
S    1    1.000000
   1.02741000E-01    1.00000000E+00 
S    1    1.000000
   3.60000000E-02    1.00000000E+00 
P    1    1.000000
   7.50000000E-01    1.00000000E+00 

[MO]
Sym=X
Ene= -0.004208
Spin=Alpha
Occup=1
     1    2.215358356714e-04
     2    2.465923246725e-04
     3    5.132177281076e-05
     4   -7.610024092874e-05
     5   -1.704021921757e-04
     6   -1.486372437939e-10
     7    2.896242907759e-16
     8    6.551317918704e-04
     9    5.071868302022e-03
    10    2.530003248200e-02
    11    8.686651098297e-02
    12    2.051921250291e-01
    13    7.495687331025e-02
    14    2.747792076321e-01
    15    9.049224892405e-05
    16   -5.558538830359e-10
    17    2.555426456315e-15
    18    7.742554717825e-04
    19    5.213322198783e-05
    20   -2.139254862577e-09
    21   -3.045300180248e-15
    22    8.185271936222e-04
    23   -3.486556558094e-04
    24    7.265316875209e-10
    25    8.114633001903e-15
    26   -8.980261453865e-04
    27    1.595343616248e-04
    28   -8.979429557970e-10
    29   -1.811168556581e-14
    30   -6.284310157571e-05
    31    1.525709661833e-04
    32    6.945561360188e-10
    33   -2.618243036586e-13
    34   -8.673735713078e-05
    35    3.452732811998e-16
    36   -6.846560856228e-17
    37    1.997358416719e-05
    38    1.140657620883e-09
    39   -3.051420747172e-04
    40   -2.362336282850e-03
    41   -1.178405067818e-02
    42   -4.046007291266e-02
    43   -9.557280980452e-02
    44   -3.491866197597e-02
    45   -1.279870851697e-01
    46    6.736159534913e-05
    47   -9.087103454297e-05
    48   -1.626216843501e-15
    49   -3.290652212591e-04
    50    2.867997535466e-04
    51   -2.201876915268e-04
    52    4.408129649509e-15
    53   -4.062592410538e-04
    54   -1.356586421594e-05
    55    2.127445610320e-04
    56   -5.438975134096e-15
    57    4.569963303971e-04
    58    7.920541313406e-05
    59   -1.364599691998e-04
    60    8.137469982127e-15
    61    3.038450847919e-05
    62   -1.394510868130e-04
    63   -5.596241257100e-06
    64    2.957914005569e-13
    65    3.912460775415e-05
    66   -2.353258194794e-16
    67   -1.502372220341e-16
    68   -1.580650629567e-04
    69   -1.137905134564e-04
    70   -1.009058626794e-04
    71   -1.074139676090e-04
    72   -3.703299470622e-05
    73    3.766259221620e-05
    74    5.910765186939e-05
    75    5.144191666360e-05
    76    1.823219930850e-16
    77   -3.051364783021e-04
    78   -2.362292956783e-03
    79   -1.178383455445e-02
    80   -4.045933086072e-02
    81   -9.557105696357e-02
    82   -3.491802167359e-02
    83   -1.279847378592e-01
    84   -6.736254116744e-05
    85   -9.087065567288e-05
    86    1.278365887261e-15
    87   -3.290588284015e-04
    88   -2.868018158547e-04
    89   -2.201882154179e-04
    90    1.400926720714e-15
    91   -4.062520945209e-04
    92    1.356795129173e-05
    93    2.127422409305e-04
    94   -2.175837294674e-15
    95    4.569883929004e-04
    96   -7.920666288979e-05
    97   -1.364590583426e-04
    98    9.979600579222e-15
    99    3.038396138379e-05
   100    1.394510223301e-04
   101   -5.594732516969e-06
   102   -3.340881664495e-13
   103    3.912387866146e-05
   104   -4.443912863209e-17
   105    2.735679315132e-16
   106   -1.580661482654e-04
   107    1.137908688341e-04
   108   -1.009039849140e-04
   109   -1.074119044131e-04
   110   -3.703249273239e-05
   111    3.766191076391e-05
   112   -5.910706799577e-05
   113    5.144060744794e-05
   114    3.333954150595e-16
   115    6.551317890717e-04
   116    5.071868280348e-03
   117    2.530003237390e-02
   118    8.686651061180e-02
   119    2.051921241526e-01
   120    7.495687299004e-02
   121    2.747792064572e-01
   122   -9.049224770112e-05
   123    5.525289211158e-10
   124    6.386561739479e-16
   125    7.742554716518e-04
   126   -5.213322076786e-05
   127    2.109650988650e-09
   128    5.832445060600e-16
   129    8.185271711881e-04
   130    3.486556424382e-04
   131   -7.067583616494e-10
   132   -1.328769114290e-17
   133   -8.980261480578e-04
   134   -1.595343633909e-04
   135    8.768582412563e-10
   136   -1.169183380616e-15
   137   -6.284310172770e-05
   138   -1.525709660122e-04
   139   -6.923400703019e-10
   140    3.203057267582e-13
   141   -8.673735691677e-05
   142    2.027417560405e-16
   143    1.998552333880e-15
   144    1.997358263797e-05
   145    1.123689787687e-09
   146    2.215358350386e-04
   147    2.465923225436e-04
   148    5.132176908063e-05
   149   -7.610024167438e-05
   150    1.704021917865e-04
   151    1.460164587583e-10
   152   -2.863449551617e-16
   153   -3.051420451989e-04
   154   -2.362336054336e-03
   155   -1.178404953825e-02
   156   -4.046006899890e-02
   157   -9.557280055852e-02
   158   -3.491865859782e-02
   159   -1.279870727933e-01
   160   -6.736159490602e-05
   161    9.087103269407e-05
   162    4.167054107816e-16
   163   -3.290651770876e-04
   164   -2.867997396791e-04
   165    2.201876903742e-04
   166   -2.297914877745e-15
   167   -4.062591895059e-04
   168    1.356586685093e-05
   169   -2.127445397348e-04
   170    5.650013594250e-15
   171    4.569962986539e-04
   172   -7.920540755037e-05
   173    1.364599618701e-04
   174   -1.336129172742e-14
   175    3.038450680912e-05
   176    1.394510844053e-04
   177    5.596239170074e-06
   178   -2.841302649164e-13
   179    3.912460303903e-05
   180    7.114067539521e-16
   181   -1.440174263948e-16
   182   -1.580650547838e-04
   183   -1.137905132394e-04
   184   -1.009058519802e-04
   185   -1.074139533999e-04
   186   -3.703299416779e-05
   187    3.766258696567e-05
   188   -5.910764597404e-05
   189   -5.144190867235e-05
   190   -5.505322455220e-16
   191   -3.051364613885e-04
   192   -2.362292825836e-03
   193   -1.178383390123e-02
   194   -4.045932861806e-02
   195   -9.557105166489e-02
   196   -3.491801973753e-02
   197   -1.279847307694e-01
   198    6.736253906438e-05
   199    9.087065573688e-05
   200    6.450663681935e-17
   201   -3.290587960759e-04
   202    2.868017977948e-04
   203    2.201882125422e-04
   204    4.661271497392e-16
   205   -4.062520956066e-04
   206   -1.356793704369e-05
   207   -2.127422427073e-04
   208   -6.849793329366e-15
   209    4.569883675150e-04
   210    7.920665495533e-05
   211    1.364590468511e-04
   212    1.673742336796e-14
   213    3.038395985791e-05
   214   -1.394510201995e-04
   215    5.594731184988e-06
   216    2.611595118807e-13
   217    3.912387555396e-05
   218    1.549238621449e-15
   219    7.201415195305e-17
   220   -1.580661370443e-04
   221    1.137908687599e-04
   222   -1.009039781436e-04
   223   -1.074118975250e-04
   224   -3.703249901582e-05
   225    3.766190539497e-05
   226    5.910706336937e-05
   227   -5.144060245663e-05
   228    2.277914149700e-16
Sym=X
Ene= -0.012120
Spin=Alpha
Occup=1
     1   -3.391876960278e-10
     2   -1.127094970962e-09
     3    2.052319368208e-09
     4   -3.261634947772e-10
     5    8.030887177935e-10
     6    2.942378403078e-05
     7    8.675535841736e-16
     8    3.938073066821e-11
     9    3.051598713491e-10
    10    1.521259552442e-09
    11    5.234154352402e-09
    12    1.234254438733e-08
    13    5.407187844291e-09
    14    1.692217059273e-08
    15    4.497399382400e-10
    16    1.198917793056e-04
    17    1.651278067168e-16
    18   -4.831516532949e-09
    19    3.553284195704e-09
    20    4.141522351960e-04
    21   -1.349987896686e-15
    22    4.014699707302e-09
    23   -2.413362672073e-09
    24   -1.364688063720e-04
    25   -8.849916638764e-16
    26   -5.971478724242e-09
    27    6.321267781223e-10
    28    1.580772454358e-04
    29    6.371541948317e-15
    30   -1.698745974694e-10
    31    5.354175642730e-10
    32   -1.362948311718e-04
    33   -1.305847019114e-13
    34    1.894656693137e-10
    35   -3.452334189000e-16
    36    1.087270484456e-15
    37    1.578392643477e-09
    38   -2.238848040700e-04
    39    5.547102527286e-04
    40    4.294430628456e-03
    41    2.142193165750e-02
    42    7.355126907176e-02
    43    1.737393870920e-01
    44    6.347052529449e-02
    45    2.326613274195e-01
    46    9.105412313596e-05
    47    3.781743704914e-05
    48    1.470710467898e-15
    49    6.373375610583e-04
    50    2.080523515104e-04
    51   -5.379878843337e-05
    52   -8.197752760995e-16
    53    7.075119342502e-04
    54   -2.110516856423e-04
    55   -2.290822258611e-04
    56   -2.698774800427e-15
    57   -7.827471297458e-04
    58    1.372235974510e-04
    59    7.959970167091e-05
    60   -1.194832408729e-14
    61   -5.385398835878e-05
    62    6.587879987049e-06
    63    1.477066142968e-04
    64    1.239601796389e-13
    65   -7.270503543269e-05
    66   -7.626511818919e-16
    67    1.687704174419e-15
    68   -1.083514922228e-04
    69   -3.621658176621e-05
    70    1.862608085545e-04
    71    2.044936002278e-04
    72    5.104074040043e-05
    73   -6.571667754889e-05
    74   -5.787909238944e-05
    75   -1.296735892025e-04
    76    3.730900408491e-16
    77   -5.547204131963e-04
    78   -4.294509287727e-03
    79   -2.142232403581e-02
    80   -7.355261626266e-02
    81   -1.737425694060e-01
    82   -6.347168614690e-02
    83   -2.326655881735e-01
    84    9.105339963841e-05
    85   -3.781846310723e-05
    86    2.445534812631e-16
    87   -6.373590474340e-04
    88    2.080460549377e-04
    89    5.380214143020e-05
    90   -1.834825581127e-15
    91   -7.075171613976e-04
    92   -2.110510742005e-04
    93    2.290836512791e-04
    94   -1.489239430887e-15
    95    7.827494633053e-04
    96    1.372229371097e-04
    97   -7.960144459570e-05
    98    2.357251830030e-14
    99    5.385462689603e-05
   100    6.589605273618e-06
   101   -1.477071322600e-04
   102   -1.697171241560e-13
   103    7.270676440024e-05
   104    2.686256770680e-16
   105    9.649539933588e-16
   106    1.083483429560e-04
   107   -3.621792878471e-05
   108   -1.862649264172e-04
   109   -2.044996455426e-04
   110   -5.103763312665e-05
   111    6.571718731465e-05
   112   -5.788143343940e-05
   113    1.296771031261e-04
   114    2.529300216226e-16
   115   -3.496585080475e-11
   116   -2.704176168367e-10
   117   -1.349898751069e-09
   118   -4.623810773614e-09
   119   -1.094380784089e-08
   120   -3.100398908010e-09
   121   -1.426074394416e-08
   122   -4.375335816336e-10
   123   -1.198917796604e-04
   124   -8.816633862683e-16
   125   -4.910234209689e-09
   126   -3.554137982248e-09
   127   -4.141522384082e-04
   128   -3.974722608464e-15
   129    3.737943580893e-09
   130    2.267766328895e-09
   131    1.364688085172e-04
   132    4.275878161769e-15
   133   -5.930827272831e-09
   134   -6.458974184102e-10
   135   -1.580772475633e-04
   136   -3.682870606661e-14
   137   -1.682200961433e-10
   138   -5.305272385370e-10
   139    1.362948314778e-04
   140    2.288168566006e-13
   141    1.996399003418e-10
   142    2.325208879974e-16
   143    4.489816412697e-17
   144    1.573167298971e-09
   145   -2.238848059134e-04
   146   -3.631616460027e-10
   147   -1.169142522068e-09
   148    2.018679705393e-09
   149   -3.289398306715e-10
   150   -8.235802644638e-10
   151   -2.942378428594e-05
   152   -5.249264304953e-16
   153    5.547102929565e-04
   154    4.294430939887e-03
   155    2.142193321099e-02
   156    7.355127440578e-02
   157    1.737393996904e-01
   158    6.347052989689e-02
   159    2.326613442981e-01
   160   -9.105412675103e-05
   161   -3.781744883298e-05
   162   -1.888135026150e-15
   163    6.373375836355e-04
   164   -2.080523340371e-04
   165    5.379876872689e-05
   166    2.802674273422e-15
   167    7.075121738950e-04
   168    2.110517399624e-04
   169    2.290823532784e-04
   170   -8.180028638565e-15
   171   -7.827471333249e-04
   172   -1.372235729800e-04
   173   -7.959969143052e-05
   174    3.188820258344e-14
   175   -5.385398783257e-05
   176   -6.587882197214e-06
   177   -1.477066141085e-04
   178   -2.341232955903e-13
   179   -7.270503986170e-05
   180   -8.255338928301e-16
   181   -1.578483219812e-15
   182   -1.083514859170e-04
   183   -3.621656406202e-05
   184    1.862608196781e-04
   185    2.044936267232e-04
   186    5.104077849740e-05
   187   -6.571666676130e-05
   188    5.787909848724e-05
   189    1.296735953633e-04
   190    1.247144204353e-16
   191   -5.547204483499e-04
   192   -4.294509559887e-03
   193   -2.142232539340e-02
   194   -7.355262092408e-02
   195   -1.737425804154e-01
   196   -6.347169016887e-02
   197   -2.326656029252e-01
   198   -9.105340354807e-05
   199    3.781847464627e-05
   200   -9.021389723785e-16
   201   -6.373590616005e-04
   202   -2.080460409453e-04
   203   -5.380212212005e-05
   204    3.609037569796e-16
   205   -7.075173954726e-04
   206    2.110511297893e-04
   207   -2.290837766107e-04
   208    2.314218601299e-15
   209    7.827494613957e-04
   210   -1.372229137858e-04
   211    7.960143209381e-05
   212   -1.601522852782e-14
   213    5.385462598541e-05
   214   -6.589606887375e-06
   215    1.477071316121e-04
   216    1.840236731590e-13
   217    7.270676796258e-05
   218   -9.822627194119e-16
   219    2.617161241515e-16
   220    1.083483387516e-04
   221   -3.621791113245e-05
   222   -1.862649356822e-04
   223   -2.044996697463e-04
   224   -5.103767198716e-05
   225    6.571717496222e-05
   226    5.788143838967e-05
   227   -1.296771078140e-04
   228   -6.663945540591e-16
Sym=X
Ene= -0.061656
Spin=Alpha
Occup=1
     1   -2.006484017141e-04
     2   -2.152666051903e-04
     3    1.608074236471e-04
     4    1.677878291054e-04
     5    1.948512265509e-04
     6    4.265951199112e-10
     7   -2.408262791150e-16
     8   -5.105857069157e-04
     9   -3.952683495782e-03
    10   -1.971810040697e-02
    11   -6.769678164474e-02
    12   -1.599425232248e-01
    13   -5.843732447339e-02
    14   -2.140262665341e-01
    15    2.277197356076e-05
    16    4.801506270274e-10
    17   -9.349047892797e-16
    18   -9.358584502288e-04
    19    1.799881449614e-04
    20    4.855565023193e-09
    21    1.591897210226e-15
    22   -1.225735878440e-04
    23   -1.594500790116e-04
    24   -3.226781041800e-09
    25   -9.687012291778e-15
    26    6.913071888432e-04
    27   -1.765112601458e-04
    28    3.324558817684e-09
    29    6.867372002091e-14
    30    4.138925609316e-05
    31   -6.771492238851e-05
    32   -3.821107249512e-10
    33   -7.740268159804e-13
    34    9.117293290311e-05
    35    9.366255191201e-16
    36   -2.018601835033e-16
    37    1.490006461313e-04
    38   -2.765613507882e-09
    39   -4.209241796458e-04
    40   -3.258632157516e-03
    41   -1.625542900787e-02
    42   -5.581048650834e-02
    43   -1.318460853899e-01
    44   -4.817044956192e-02
    45   -1.764978261841e-01
    46   -6.930983896491e-05
    47    6.989177294883e-06
    48   -1.779450183270e-15
    49   -5.960626979230e-04
    50   -4.797267244431e-04
    51    3.588144510436e-04
    52   -1.253087525664e-15
    53   -8.878437067154e-04
    54    5.335822183388e-04
    55    1.329290240326e-04
    56    9.556355431483e-15
    57    3.917440214803e-04
    58   -3.631597422137e-04
    59    1.791777785371e-04
    60   -7.472042986759e-14
    61    2.095588641856e-05
    62    1.976405151385e-05
    63   -5.843268533546e-05
    64    7.834894805839e-13
    65    6.561933983339e-05
    66   -1.865904576483e-17
    67   -1.282720240261e-15
    68    2.742285064727e-04
    69    2.051932447686e-04
    70   -1.494169281433e-04
    71   -2.099527190101e-04
    72   -4.085163610277e-05
    73    5.667982004790e-05
    74    2.283668216720e-05
    75    1.444777394565e-04
    76    8.486232602359e-17
    77    4.209317536475e-04
    78    3.258690791905e-03
    79    1.625572150450e-02
    80    5.581149073086e-02
    81    1.318484578884e-01
    82    4.817131644821e-02
    83    1.765010014678e-01
    84   -6.930938172374e-05
    85   -6.988877380787e-06
    86   -2.013677076153e-15
    87    5.960751929935e-04
    88   -4.797215218050e-04
    89   -3.588137930223e-04
    90    2.319576218837e-15
    91    8.878519132148e-04
    92    5.335803435961e-04
    93   -1.329322028883e-04
    94   -1.297297450669e-14
    95   -3.917529305845e-04
    96   -3.631576806972e-04
    97   -1.791747198136e-04
    98    7.698536686237e-14
    99   -2.095639805238e-05
   100    1.976328617904e-05
   101    5.843326597916e-05
   102   -8.003282014167e-13
   103   -6.562061415362e-05
   104   -7.449616438304e-16
   105   -7.568352234650e-16
   106   -2.742253373501e-04
   107    2.051931943519e-04
   108    1.494197755295e-04
   109    2.099561743501e-04
   110    4.085067720560e-05
   111   -5.668162297301e-05
   112    2.283839828509e-05
   113   -1.444798597506e-04
   114    4.447145294507e-16
   115    5.105857078962e-04
   116    3.952683503367e-03
   117    1.971810044482e-02
   118    6.769678177466e-02
   119    1.599425235317e-01
   120    5.843732458416e-02
   121    2.140262669445e-01
   122    2.277197410827e-05
   123    4.788027897507e-10
   124    5.140300029200e-16
   125    9.358584589524e-04
   126    1.799881504048e-04
   127    4.851479738268e-09
   128   -3.214787921076e-15
   129    1.225735830910e-04
   130   -1.594500820257e-04
   131   -3.225612142304e-09
   132    1.001924364915e-14
   133   -6.913071787081e-04
   134   -1.765112581595e-04
   135    3.324216259340e-09
   136   -7.012367286864e-14
   137   -4.138925569145e-05
   138   -6.771492181432e-05
   139   -3.803099096861e-10
   140    7.976929553432e-13
   141   -9.117293334119e-05
   142    1.825299132875e-16
   143   -4.897555188365e-16
   144   -1.490006485232e-04
   145    2.763348081384e-09
   146    2.006484025920e-04
   147    2.152666073481e-04
   148   -1.608074265897e-04
   149   -1.677878278946e-04
   150    1.948512280538e-04
   151    4.262897072412e-10
   152    4.687949474011e-16
   153    4.209241926845e-04
   154    3.258632258460e-03
   155    1.625542951140e-02
   156    5.581048823718e-02
   157    1.318460894737e-01
   158    4.817045105232e-02
   159    1.764978316523e-01
   160   -6.930983940843e-05
   161    6.989176226596e-06
   162   -1.696522755312e-15
   163    5.960627203700e-04
   164   -4.797267221512e-04
   165    3.588144545536e-04
   166    2.086897585488e-15
   167    8.878437176585e-04
   168    5.335822201982e-04
   169    1.329290269145e-04
   170   -6.378411973542e-15
   171   -3.917440383637e-04
   172   -3.631597464272e-04
   173    1.791777745993e-04
   174    6.360229490399e-14
   175   -2.095588814324e-05
   176    1.976405031706e-05
   177   -5.843268781883e-05
   178   -7.911544391573e-13
   179   -6.561934185404e-05
   180    1.726312812042e-16
   181   -2.938100015989e-16
   182   -2.742285053653e-04
   183   -2.051932463707e-04
   184    1.494169330633e-04
   185    2.099527256036e-04
   186    4.085163381639e-05
   187   -5.667982278271e-05
   188    2.283668447438e-05
   189    1.444777434194e-04
   190   -2.344457931239e-16
   191   -4.209317518785e-04
   192   -3.258690778203e-03
   193   -1.625572143615e-02
   194   -5.581149049620e-02
   195   -1.318484573341e-01
   196   -4.817131624698e-02
   197   -1.765010007261e-01
   198   -6.930938302068e-05
   199   -6.988877619946e-06
   200    2.165081647487e-16
   201   -5.960751832911e-04
   202   -4.797215284294e-04
   203   -3.588137906876e-04
   204   -1.863356118057e-15
   205   -8.878519172424e-04
   206    5.335803464242e-04
   207   -1.329322042989e-04
   208    9.699356891509e-15
   209    3.917529427697e-04
   210   -3.631576851892e-04
   211   -1.791747192308e-04
   212   -6.530709555422e-14
   213    2.095639862043e-05
   214    1.976328700866e-05
   215    5.843326759884e-05
   216    7.843094632084e-13
   217    6.562061363482e-05
   218    1.197505685482e-16
   219    7.083223552266e-16
   220    2.742253406723e-04
   221   -2.051931935298e-04
   222   -1.494197743861e-04
   223   -2.099561719020e-04
   224   -4.085067999784e-05
   225    5.668162441193e-05
   226    2.283839713756e-05
   227   -1.444798584203e-04
   228    4.218299843731e-16
Sym=X
Ene= -0.351281
Spin=Alpha
Occup=1
     1    2.796552332390e-10
     2   -5.161974619248e-10
     3   -2.882001861684e-09
     4   -1.358160145327e-09
     5   -4.124145935478e-10
     6    6.246146465398e-05
     7   -9.227278274282e-16
     8    3.647902592883e-11
     9    2.814162574127e-10
    10    1.409914565196e-09
    11    4.810290043345e-09
    12    1.158489309323e-08
    13    4.245352269408e-09
    14    1.438066729476e-08
    15   -7.793504192624e-10
    16    7.562596368290e-05
    17   -6.093032438800e-17
    18    2.981344117026e-09
    19   -1.304205598427e-09
    20    7.082496766539e-04
    21    2.710481761807e-16
    22   -1.299196090817e-08
    23    8.484754807473e-09
    24   -4.710426453855e-04
    25   -2.144984584468e-16
    26   -2.881067653238e-09
    27    1.985026778032e-09
    28    4.811188329193e-04
    29   -1.807367310981e-14
    30   -2.170632914039e-10
    31    2.512015939611e-10
    32   -5.516399023896e-05
    33    9.840092224395e-14
    34   -1.654424874938e-10
    35    8.772426285376e-16
    36   -4.781619578623e-16
    37   -1.369535877700e-09
    38   -4.049092442435e-04
    39    5.545421440084e-04
    40    4.293006979444e-03
    41    2.141559463415e-02
    42    7.352577390236e-02
    43    1.737062405932e-01
    44    6.346524529777e-02
    45    2.324849920165e-01
    46   -3.101086341912e-05
    47    2.191283648654e-05
    48   -5.751822093472e-16
    49    9.119732776262e-04
    50   -3.813503269607e-04
    51    4.772519158454e-05
    52    1.490773845511e-15
    53    6.015299606428e-04
    54    1.377442102832e-04
    55   -2.324584660493e-04
    56   -2.862819208468e-15
    57   -6.447537877536e-04
    58   -1.479293781542e-04
    59    2.248933797819e-04
    60    1.581529267846e-14
    61   -3.711480087899e-05