[Molden Format]
[Atoms] (Angs)
  H      1    1      2.47503475      0.00000000     -0.00000000
  C      2    6      1.39359294      0.00000000     -0.00000000
  C      3    6      0.69679647      1.20688689      0.00000000
  H      4    1      1.23751738      2.14344297      0.00000000
  C      5    6     -0.69679647      1.20688689      0.00000000
  H      6    1     -1.23751738      2.14344297      0.00000000
  C      7    6     -1.39359294     -0.00000000      0.00000000
  H      8    1     -2.47503475     -0.00000000      0.00000000
  C      9    6     -0.69679647     -1.20688689     -0.00000000
  H     10    1     -1.23751738     -2.14344297     -0.00000000
  C     11    6      0.69679647     -1.20688689     -0.00000000
  H     12    1      1.23751738     -2.14344297     -0.00000000
[GTO]
1    0
S    3    1.000000
   3.38650000E+01    2.54938000E-02 
   5.09479000E+00    1.90373000E-01 
   1.15879000E+00    8.52161000E-01 
S    1    1.000000
   3.25840000E-01    1.00000000E+00 
S    1    1.000000
   1.02741000E-01    1.00000000E+00 
S    1    1.000000
   3.60000000E-02    1.00000000E+00 
P    1    1.000000
   7.50000000E-01    1.00000000E+00 

2    0
S    1    1.000000
   4.56324000E+03    1.96665000E-03 
S    1    1.000000
   6.82024000E+02    1.52306000E-02 
S    1    1.000000
   1.54973000E+02    7.61269000E-02 
S    1    1.000000
   4.44553000E+01    2.60801000E-01 
S    1    1.000000
   1.30290000E+01    6.16462000E-01 
S    1    1.000000
   1.82773000E+00    2.21006000E-01 
SP   3    1.000000
   2.09642000E+01    1.14660000E-01   4.02487000E-02 
   4.80331000E+00    9.19999000E-01   2.37594000E-01 
   1.45933000E+00   -3.03068000E-03   8.15854000E-01 
SP   1    1.000000
   4.83456000E-01    1.00000000E+00   1.00000000E+00 
SP   1    1.000000
   1.45585000E-01    1.00000000E+00   1.00000000E+00 
SP   1    1.000000
   4.38000000E-02    1.00000000E+00   1.00000000E+00 
SP   1    1.000000
   1.31927711E-02    1.00000000E+00   1.00000000E+00 
D    1    1.000000
   6.26000000E-01    1.00000000E+00 

3    0
S    1    1.000000
   4.56324000E+03    1.96665000E-03 
S    1    1.000000
   6.82024000E+02    1.52306000E-02 
S    1    1.000000
   1.54973000E+02    7.61269000E-02 
S    1    1.000000
   4.44553000E+01    2.60801000E-01 
S    1    1.000000
   1.30290000E+01    6.16462000E-01 
S    1    1.000000
   1.82773000E+00    2.21006000E-01 
SP   3    1.000000
   2.09642000E+01    1.14660000E-01   4.02487000E-02 
   4.80331000E+00    9.19999000E-01   2.37594000E-01 
   1.45933000E+00   -3.03068000E-03   8.15854000E-01 
SP   1    1.000000
   4.83456000E-01    1.00000000E+00   1.00000000E+00 
SP   1    1.000000
   1.45585000E-01    1.00000000E+00   1.00000000E+00 
SP   1    1.000000
   4.38000000E-02    1.00000000E+00   1.00000000E+00 
SP   1    1.000000
   1.31927711E-02    1.00000000E+00   1.00000000E+00 
D    1    1.000000
   6.26000000E-01    1.00000000E+00 

4    0
S    3    1.000000
   3.38650000E+01    2.54938000E-02 
   5.09479000E+00    1.90373000E-01 
   1.15879000E+00    8.52161000E-01 
S    1    1.000000
   3.25840000E-01    1.00000000E+00 
S    1    1.000000
   1.02741000E-01    1.00000000E+00 
S    1    1.000000
   3.60000000E-02    1.00000000E+00 
P    1    1.000000
   7.50000000E-01    1.00000000E+00 

5    0
S    1    1.000000
   4.56324000E+03    1.96665000E-03 
S    1    1.000000
   6.82024000E+02    1.52306000E-02 
S    1    1.000000
   1.54973000E+02    7.61269000E-02 
S    1    1.000000
   4.44553000E+01    2.60801000E-01 
S    1    1.000000
   1.30290000E+01    6.16462000E-01 
S    1    1.000000
   1.82773000E+00    2.21006000E-01 
SP   3    1.000000
   2.09642000E+01    1.14660000E-01   4.02487000E-02 
   4.80331000E+00    9.19999000E-01   2.37594000E-01 
   1.45933000E+00   -3.03068000E-03   8.15854000E-01 
SP   1    1.000000
   4.83456000E-01    1.00000000E+00   1.00000000E+00 
SP   1    1.000000
   1.45585000E-01    1.00000000E+00   1.00000000E+00 
SP   1    1.000000
   4.38000000E-02    1.00000000E+00   1.00000000E+00 
SP   1    1.000000
   1.31927711E-02    1.00000000E+00   1.00000000E+00 
D    1    1.000000
   6.26000000E-01    1.00000000E+00 

6    0
S    3    1.000000
   3.38650000E+01    2.54938000E-02 
   5.09479000E+00    1.90373000E-01 
   1.15879000E+00    8.52161000E-01 
S    1    1.000000
   3.25840000E-01    1.00000000E+00 
S    1    1.000000
   1.02741000E-01    1.00000000E+00 
S    1    1.000000
   3.60000000E-02    1.00000000E+00 
P    1    1.000000
   7.50000000E-01    1.00000000E+00 

7    0
S    1    1.000000
   4.56324000E+03    1.96665000E-03 
S    1    1.000000
   6.82024000E+02    1.52306000E-02 
S    1    1.000000
   1.54973000E+02    7.61269000E-02 
S    1    1.000000
   4.44553000E+01    2.60801000E-01 
S    1    1.000000
   1.30290000E+01    6.16462000E-01 
S    1    1.000000
   1.82773000E+00    2.21006000E-01 
SP   3    1.000000
   2.09642000E+01    1.14660000E-01   4.02487000E-02 
   4.80331000E+00    9.19999000E-01   2.37594000E-01 
   1.45933000E+00   -3.03068000E-03   8.15854000E-01 
SP   1    1.000000
   4.83456000E-01    1.00000000E+00   1.00000000E+00 
SP   1    1.000000
   1.45585000E-01    1.00000000E+00   1.00000000E+00 
SP   1    1.000000
   4.38000000E-02    1.00000000E+00   1.00000000E+00 
SP   1    1.000000
   1.31927711E-02    1.00000000E+00   1.00000000E+00 
D    1    1.000000
   6.26000000E-01    1.00000000E+00 

8    0
S    3    1.000000
   3.38650000E+01    2.54938000E-02 
   5.09479000E+00    1.90373000E-01 
   1.15879000E+00    8.52161000E-01 
S    1    1.000000
   3.25840000E-01    1.00000000E+00 
S    1    1.000000
   1.02741000E-01    1.00000000E+00 
S    1    1.000000
   3.60000000E-02    1.00000000E+00 
P    1    1.000000
   7.50000000E-01    1.00000000E+00 

9    0
S    1    1.000000
   4.56324000E+03    1.96665000E-03 
S    1    1.000000
   6.82024000E+02    1.52306000E-02 
S    1    1.000000
   1.54973000E+02    7.61269000E-02 
S    1    1.000000
   4.44553000E+01    2.60801000E-01 
S    1    1.000000
   1.30290000E+01    6.16462000E-01 
S    1    1.000000
   1.82773000E+00    2.21006000E-01 
SP   3    1.000000
   2.09642000E+01    1.14660000E-01   4.02487000E-02 
   4.80331000E+00    9.19999000E-01   2.37594000E-01 
   1.45933000E+00   -3.03068000E-03   8.15854000E-01 
SP   1    1.000000
   4.83456000E-01    1.00000000E+00   1.00000000E+00 
SP   1    1.000000
   1.45585000E-01    1.00000000E+00   1.00000000E+00 
SP   1    1.000000
   4.38000000E-02    1.00000000E+00   1.00000000E+00 
SP   1    1.000000
   1.31927711E-02    1.00000000E+00   1.00000000E+00 
D    1    1.000000
   6.26000000E-01    1.00000000E+00 

10    0
S    3    1.000000
   3.38650000E+01    2.54938000E-02 
   5.09479000E+00    1.90373000E-01 
   1.15879000E+00    8.52161000E-01 
S    1    1.000000
   3.25840000E-01    1.00000000E+00 
S    1    1.000000
   1.02741000E-01    1.00000000E+00 
S    1    1.000000
   3.60000000E-02    1.00000000E+00 
P    1    1.000000
   7.50000000E-01    1.00000000E+00 

11    0
S    1    1.000000
   4.56324000E+03    1.96665000E-03 
S    1    1.000000
   6.82024000E+02    1.52306000E-02 
S    1    1.000000
   1.54973000E+02    7.61269000E-02 
S    1    1.000000
   4.44553000E+01    2.60801000E-01 
S    1    1.000000
   1.30290000E+01    6.16462000E-01 
S    1    1.000000
   1.82773000E+00    2.21006000E-01 
SP   3    1.000000
   2.09642000E+01    1.14660000E-01   4.02487000E-02 
   4.80331000E+00    9.19999000E-01   2.37594000E-01 
   1.45933000E+00   -3.03068000E-03   8.15854000E-01 
SP   1    1.000000
   4.83456000E-01    1.00000000E+00   1.00000000E+00 
SP   1    1.000000
   1.45585000E-01    1.00000000E+00   1.00000000E+00 
SP   1    1.000000
   4.38000000E-02    1.00000000E+00   1.00000000E+00 
SP   1    1.000000
   1.31927711E-02    1.00000000E+00   1.00000000E+00 
D    1    1.000000
   6.26000000E-01    1.00000000E+00 

12    0
S    3    1.000000
   3.38650000E+01    2.54938000E-02 
   5.09479000E+00    1.90373000E-01 
   1.15879000E+00    8.52161000E-01 
S    1    1.000000
   3.25840000E-01    1.00000000E+00 
S    1    1.000000
   1.02741000E-01    1.00000000E+00 
S    1    1.000000
   3.60000000E-02    1.00000000E+00 
P    1    1.000000
   7.50000000E-01    1.00000000E+00 

[MO]
Sym=X
Ene= -0.002672
Spin=Alpha
Occup=1
     1    3.391876851185e-10
     2    1.127094974823e-09
     3   -2.052319366153e-09
     4    3.261634802715e-10
     5   -8.030887120077e-10
     6   -2.942378403078e-05
     7   -8.675535841736e-16
     8   -3.938075616475e-11
     9   -3.051600697231e-10
    10   -1.521260544276e-09
    11   -5.234157742944e-09
    12   -1.234255244251e-08
    13   -5.407190728650e-09
    14   -1.692218138150e-08
    15   -4.497399413917e-10
    16   -1.198917793056e-04
    17   -1.651278067168e-16
    18    4.831516444945e-09
    19   -3.553284184701e-09
    20   -4.141522351960e-04
    21    1.349987896686e-15
    22   -4.014699623167e-09
    23    2.413362614869e-09
    24    1.364688063720e-04
    25    8.849916638761e-16
    26    5.971478722498e-09
    27   -6.321267656014e-10
    28   -1.580772454358e-04
    29   -6.371541948315e-15
    30    1.698745973572e-10
    31   -5.354175608797e-10
    32    1.362948311718e-04
    33    1.305847019114e-13
    34   -1.894656616815e-10
    35    3.452334189001e-16
    36   -1.087270484456e-15
    37   -1.578392637697e-09
    38    2.238848040700e-04
    39   -5.547102527286e-04
    40   -4.294430628456e-03
    41   -2.142193165750e-02
    42   -7.355126907176e-02
    43   -1.737393870920e-01
    44   -6.347052529449e-02
    45   -2.326613274195e-01
    46   -9.105412313597e-05
    47   -3.781743704913e-05
    48   -1.470710467898e-15
    49   -6.373375610582e-04
    50   -2.080523515104e-04
    51    5.379878843336e-05
    52    8.197752760993e-16
    53   -7.075119342503e-04
    54    2.110516856423e-04
    55    2.290822258611e-04
    56    2.698774800428e-15
    57    7.827471297460e-04
    58   -1.372235974510e-04
    59   -7.959970167097e-05
    60    1.194832408729e-14
    61    5.385398835879e-05
    62   -6.587879987053e-06
    63   -1.477066142968e-04
    64   -1.239601796389e-13
    65    7.270503543269e-05
    66    7.626511818920e-16
    67   -1.687704174419e-15
    68    1.083514922228e-04
    69    3.621658176621e-05
    70   -1.862608085545e-04
    71   -2.044936002278e-04
    72   -5.104074040042e-05
    73    6.571667754894e-05
    74    5.787909238944e-05
    75    1.296735892025e-04
    76   -3.730900408491e-16
    77    5.547204131963e-04
    78    4.294509287727e-03
    79    2.142232403581e-02
    80    7.355261626266e-02
    81    1.737425694060e-01
    82    6.347168614690e-02
    83    2.326655881735e-01
    84   -9.105339963840e-05
    85    3.781846310723e-05
    86   -2.445534812632e-16
    87    6.373590474341e-04
    88   -2.080460549377e-04
    89   -5.380214143022e-05
    90    1.834825581127e-15
    91    7.075171613977e-04
    92    2.110510742005e-04
    93   -2.290836512791e-04
    94    1.489239430887e-15
    95   -7.827494633053e-04
    96   -1.372229371097e-04
    97    7.960144459574e-05
    98   -2.357251830030e-14
    99   -5.385462689604e-05
   100   -6.589605273614e-06
   101    1.477071322600e-04
   102    1.697171241560e-13
   103   -7.270676440024e-05
   104   -2.686256770680e-16
   105   -9.649539933588e-16
   106   -1.083483429560e-04
   107    3.621792878472e-05
   108    1.862649264172e-04
   109    2.044996455426e-04
   110    5.103763312663e-05
   111   -6.571718731468e-05
   112    5.788143343940e-05
   113   -1.296771031261e-04
   114   -2.529300216226e-16
   115    3.496586987575e-11
   116    2.704177660889e-10
   117    1.349899491562e-09
   118    4.623813336563e-09
   119    1.094381386784e-08
   120    3.100401091828e-09
   121    1.426075199084e-08
   122    4.375335801463e-10
   123    1.198917796604e-04
   124    8.816633862683e-16
   125    4.910234252113e-09
   126    3.554137990328e-09
   127    4.141522384082e-04
   128    3.974722608463e-15
   129   -3.737943631432e-09
   130   -2.267766355362e-09
   131   -1.364688085172e-04
   132   -4.275878161769e-15
   133    5.930827269272e-09
   134    6.458974212903e-10
   135    1.580772475633e-04
   136    3.682870606660e-14
   137    1.682200940646e-10
   138    5.305272295644e-10
   139   -1.362948314778e-04
   140   -2.288168566006e-13
   141   -1.996399032471e-10
   142   -2.325208879974e-16
   143   -4.489816412699e-17
   144   -1.573167301098e-09
   145    2.238848059134e-04
   146    3.631616516753e-10
   147    1.169142530097e-09
   148   -2.018679712018e-09
   149    3.289398302791e-10
   150    8.235802725790e-10
   151    2.942378428594e-05
   152    5.249264304953e-16
   153   -5.547102929565e-04
   154   -4.294430939887e-03
   155   -2.142193321099e-02
   156   -7.355127440578e-02
   157   -1.737393996904e-01
   158   -6.347052989689e-02
   159   -2.326613442981e-01
   160    9.105412675103e-05
   161    3.781744883298e-05
   162    1.888135026150e-15
   163   -6.373375836355e-04
   164    2.080523340371e-04
   165   -5.379876872689e-05
   166   -2.802674273422e-15
   167   -7.075121738949e-04
   168   -2.110517399623e-04
   169   -2.290823532784e-04
   170    8.180028638565e-15
   171    7.827471333250e-04
   172    1.372235729800e-04
   173    7.959969143052e-05
   174   -3.188820258343e-14
   175    5.385398783257e-05
   176    6.587882197224e-06
   177    1.477066141085e-04
   178    2.341232955902e-13
   179    7.270503986170e-05
   180    8.255338928301e-16
   181    1.578483219812e-15
   182    1.083514859170e-04
   183    3.621656406202e-05
   184   -1.862608196781e-04
   185   -2.044936267232e-04
   186   -5.104077849741e-05
   187    6.571666676131e-05
   188   -5.787909848724e-05
   189   -1.296735953633e-04
   190   -1.247144204353e-16
   191    5.547204483499e-04
   192    4.294509559887e-03
   193    2.142232539340e-02
   194    7.355262092408e-02
   195    1.737425804154e-01
   196    6.347169016887e-02
   197    2.326656029252e-01
   198    9.105340354807e-05
   199   -3.781847464628e-05
   200    9.021389723785e-16
   201    6.373590616005e-04
   202    2.080460409453e-04
   203    5.380212212004e-05
   204   -3.609037569796e-16
   205    7.075173954725e-04
   206   -2.110511297892e-04
   207    2.290837766107e-04
   208   -2.314218601299e-15
   209   -7.827494613958e-04
   210    1.372229137858e-04
   211   -7.960143209384e-05
   212    1.601522852781e-14
   213   -5.385462598542e-05
   214    6.589606887369e-06
   215   -1.477071316121e-04
   216   -1.840236731590e-13
   217   -7.270676796258e-05
   218    9.822627194119e-16
   219   -2.617161241515e-16
   220   -1.083483387516e-04
   221    3.621791113244e-05
   222    1.862649356822e-04
   223    2.044996697463e-04
   224    5.103767198714e-05
   225   -6.571717496221e-05
   226   -5.788143838967e-05
   227    1.296771078140e-04
   228    6.663945540591e-16
Sym=X
Ene= -0.005023
Spin=Alpha
Occup=1
     1    1.979357631976e-04
     2    3.193466580738e-04
     3   -2.298689849859e-04
     4   -7.420262853284e-06
     5   -2.231449985994e-04
     6    2.170930854779e-10
     7    2.113836092297e-16
     8    4.492535976858e-04
     9    3.477973703759e-03
    10    1.734932378902e-02
    11    5.956668482311e-02
    12    1.407084604524e-01
    13    5.128330568150e-02
    14    1.883758451873e-01
    15    4.171968101129e-06
    16    9.271945775156e-10
    17    1.094448532072e-15
    18    1.168145458976e-03
    19   -4.287302036599e-04
    20    3.049627501997e-09
    21   -3.056526425180e-15
    22    5.632100613497e-05
    23    6.506942352180e-05
    24   -9.889251712103e-10
    25    6.083576910055e-15
    26    1.659339921000e-04
    27    2.322221882920e-05
    28    1.157855642204e-09
    29   -1.931895376223e-14
    30   -2.060447064089e-05
    31    3.378555521201e-05
    32   -1.008593475252e-09
    33   -9.664396459049e-15
    34   -8.522582431930e-05
    35   -7.078066586924e-16
    36   -1.019473135654e-15
    37   -1.924336907360e-04
    38   -1.656129675685e-09
    39    4.544292364281e-04
    40    3.518042228598e-03
    41    1.754919782949e-02
    42    6.025294363320e-02
    43    1.423295090941e-01
    44    5.187550755282e-02
    45    1.905466559806e-01
    46    1.967647047653e-06
    47    4.524850321446e-06
    48    7.775359221023e-16
    49    1.174092048299e-03
    50   -2.157677653042e-04
    51   -3.698628546043e-04
    52    7.430062878323e-16
    53    6.292234139394e-05
    54    3.166739938840e-05
    55    5.357831979909e-05
    56   -2.759929880938e-15
    57    1.586295645672e-04
    58    1.161551079421e-05
    59    2.159115721544e-05
    60    1.042374553534e-14
    61   -2.110706528976e-05
    62    1.805469796237e-05
    63    3.000200164316e-05
    64    1.647355365912e-14
    65   -8.590420439315e-05
    66    9.849329468272e-16
    67   -6.741659220174e-16
    68    9.701350359747e-05
    69   -1.659468267367e-04
    70    1.996736552409e-04
    71    3.212547344949e-04
    72   -2.293929431446e-04
    73   -8.033753230424e-06
    74   -1.123501090576e-04
    75   -1.943220183952e-04
    76   -1.209508958331e-16
    77    4.544209049629e-04
    78    3.517977728424e-03
    79    1.754887608288e-02
    80    6.025183892924e-02
    81    1.423268996155e-01
    82    5.187455433757e-02
    83    1.905431614997e-01
    84   -1.966242760798e-06
    85    4.524283738155e-06
    86    1.960606651716e-16
    87    1.174082508620e-03
    88    2.157708694925e-04
    89   -3.698620355727e-04
    90   -2.401949933496e-16
    91    6.291168913387e-05
    92   -3.167057140298e-05
    93    5.358177223051e-05
    94   -1.281037426220e-15
    95    1.586416051772e-04
    96   -1.161338468750e-05
    97    2.158984897063e-05
    98   -1.144161509976e-15
    99   -2.110622876062e-05
   100   -1.805459583419e-05
   101    2.999980005754e-05
   102   -2.509700480473e-14
   103   -8.590310934422e-05
   104    4.168872658300e-16
   105    6.944428324348e-16
   106    9.701513028621e-05
   107    1.659462765238e-04
   108    1.996708587637e-04
   109    3.212516524745e-04
   110   -2.293936936833e-04
   111   -8.032712032791e-06
   112    1.123492387054e-04
   113   -1.943200681148e-04
   114   -5.611769877936e-16
   115    4.492535899863e-04
   116    3.477973644154e-03
   117    1.734932349169e-02
   118    5.956668380229e-02
   119    1.407084580407e-01
   120    5.128330480036e-02
   121    1.883758419595e-01
   122   -4.171968058064e-06
   123   -9.361169290135e-10
   124   -6.835799246630e-16
   125    1.168145446247e-03
   126    4.287302016413e-04
   127   -3.132149927212e-09
   128    1.537858999158e-15
   129    5.632099908615e-05
   130   -6.506942460947e-05
   131    1.043986534282e-09
   132    4.687982662548e-16
   133    1.659340069165e-04
   134   -2.322221857731e-05
   135   -1.216262388474e-09
   136   -1.710252610042e-16
   137   -2.060446996130e-05
   138   -3.378555459831e-05
   139    1.014864926421e-09
   140    3.316346405954e-14
   141   -8.522582303380e-05
   142    4.686453107685e-16
   143    1.515369803465e-16
   144   -1.924336891973e-04
   145   -1.703344151898e-09
   146    1.979357602814e-04
   147    3.193466547689e-04
   148   -2.298689842950e-04
   149   -7.420262620428e-06
   150    2.231449958832e-04
   151   -2.243873718825e-10
   152    1.620872814748e-16
   153    4.544292972464e-04
   154    3.518042699428e-03
   155    1.754920017820e-02
   156    6.025295169700e-02
   157    1.423295281451e-01
   158    5.187551451315e-02
   159    1.905466814781e-01
   160   -1.967642688055e-06
   161   -4.524853275851e-06
   162   -1.744666418434e-15
   163    1.174092148307e-03
   164    2.157678155905e-04
   165    3.698628444241e-04
   166    1.708723222317e-15
   167    6.292240626449e-05
   168   -3.166742066511e-05
   169   -5.357829167861e-05
   170   -1.672941328773e-15
   171    1.586294928330e-04
   172   -1.161548539161e-05
   173   -2.159118688790e-05
   174   -6.326486283573e-15
   175   -2.110706937176e-05
   176   -1.805470449204e-05
   177   -3.000200577796e-05
   178   -2.436957654753e-14
   179   -8.590421463127e-05
   180    5.051885035780e-16
   181   -4.246563047728e-16
   182    9.701353387374e-05
   183   -1.659468235276e-04
   184    1.996736781140e-04
   185    3.212547620461e-04
   186   -2.293929510600e-04
   187   -8.033767471516e-06
   188    1.123501235849e-04
   189    1.943220349581e-04
   190    1.013111508761e-15
   191    4.544209734789e-04
   192    3.517978258846e-03
   193    1.754887872889e-02
   194    6.025184801372e-02
   195    1.423269210778e-01
   196    5.187456217888e-02
   197    1.905431902245e-01
   198    1.966239802507e-06
   199   -4.524285952086e-06
   200    8.722865700172e-16
   201    1.174082621170e-03
   202   -2.157709080825e-04
   203    3.698620346471e-04
   204    1.010207718027e-16
   205    6.291176483048e-05
   206    3.167058235737e-05
   207   -5.358174605625e-05
   208   -3.535222017632e-15
   209    1.586415190346e-04
   210    1.161337337544e-05
   211   -2.158987251104e-05
   212    1.688155523385e-14
   213   -2.110623348999e-05
   214    1.805460208330e-05
   215   -2.999980560376e-05
   216    8.234322298970e-15
   217   -8.590312090497e-05
   218   -8.395747607912e-16
   219   -2.234741067898e-16
   220    9.701515406905e-05
   221    1.659462789356e-04
   222    1.996708845144e-04
   223    3.212516838301e-04
   224   -2.293937021308e-04
   225   -8.032728509650e-06
   226   -1.123492534952e-04
   227    1.943200877401e-04
   228   -4.229149243392e-16
Sym=X
Ene= -0.026058
Spin=Alpha
Occup=1
     1    2.796552558185e-10
     2   -5.161974296833e-10
     3   -2.882001872497e-09
     4   -1.358160100946e-09
     5   -4.124146222785e-10
     6    6.246146465398e-05
     7   -9.227278274282e-16
     8    3.647908559642e-11
     9    2.814167226231e-10
    10    1.409916871485e-09
    11    4.810297998042e-09
    12    1.158491192053e-08
    13    4.245359107299e-09
    14    1.438069238316e-08
    15   -7.793504191449e-10
    16    7.562596368290e-05
    17   -6.093032438785e-17
    18    2.981344280485e-09
    19   -1.304205649106e-09
    20    7.082496766539e-04
    21    2.710481761804e-16
    22   -1.299196093887e-08
    23    8.484754832561e-09
    24   -4.710426453855e-04
    25   -2.144984584459e-16
    26   -2.881067513356e-09
    27    1.985026697138e-09
    28    4.811188329193e-04
    29   -1.807367310981e-14
    30   -2.170632804415e-10
    31    2.512015911907e-10
    32   -5.516399023898e-05
    33    9.840092224395e-14
    34   -1.654424979233e-10
    35    8.772426285375e-16
    36   -4.781619578624e-16
    37   -1.369535901165e-09
    38   -4.049092442435e-04
    39    5.545421440084e-04
    40    4.293006979444e-03
    41    2.141559463415e-02
    42    7.352577390237e-02
    43    1.737062405932e-01
    44    6.346524529778e-02
    45    2.324849920165e-01
    46   -3.101086341912e-05
    47    2.191283648655e-05
    48   -5.751822093471e-16
    49    9.119732776264e-04
    50   -3.813503269607e-04
    51    4.772519158448e-05
    52    1.490773845511e-15
    53    6.015299606428e-04
    54    1.377442102832e-04
    55   -2.324584660494e-04
    56   -2.862819208469e-15
    57   -6.447537877537e-04
    58   -1.479293781542e-04
    59    2.248933797819e-04
    60    1.581529267846e-14
    61   -3.711480087900e-05
    62    5.616351346822e-05
    63    4.211455596087e-05
    64   -9.965356681266e-14
    65   -9.334069349312e-05
    66   -5.570262382638e-16
    67    3.566738869538e-16
    68    2.317612121813e-04
    69    3.483388229002e-06
    70    2.083990136517e-04
    71    2.531401781085e-04
    72   -7.140876144329e-05
    73   -1.336277439616e-04
    74   -1.256872387530e-04
    75   -1.552357901725e-04
    76   -3.852873540748e-16
    77    5.545321678488e-04
    78    4.292929746648e-03
    79    2.141520937183e-02
    80    7.352445112587e-02
    81    1.737031159521e-01
    82    6.346410382049e-02
    83    2.324808077644e-01
    84    3.101231180531e-05
    85    2.191177010853e-05
    86   -5.649371669743e-16
    87    9.119627154041e-04
    88    3.813557380539e-04
    89    4.772848153528e-05
    90    7.958847281358e-16
    91    6.014931235409e-04
    92   -1.377575336886e-04
    93   -2.324438179915e-04
    94   -3.422850447347e-16
    95   -6.447481394317e-04
    96    1.479322038700e-04
    97    2.248970127782e-04
    98   -1.782971353498e-14
    99   -3.711457035772e-05
   100   -5.616360960164e-05
   101    4.211373833795e-05
   102    8.130663989883e-14
   103   -9.333932971993e-05
   104   -6.215782549204e-16
   105    4.052026363861e-16
   106    2.317647010426e-04
   107   -3.484613051721e-06
   108    2.083957945886e-04
   109    2.531345419236e-04
   110   -7.141318973141e-05
   111   -1.336280187076e-04
   112    1.256863473758e-04
   113   -1.552331224409e-04
   114   -4.787301085811e-16
   115    4.076490746668e-11
   116    3.165878893323e-10
   117    1.573130109459e-09
   118    5.431685390630e-09
   119    1.260857818676e-08
   120    4.578962809355e-09
   121    1.801158764311e-08
   122   -7.833368115104e-10
   123    7.562596312140e-05
   124   -4.073313106404e-16
   125   -2.816475833178e-09
   126   -1.256626238312e-09
   127    7.082496747559e-04
   128    4.068673220768e-16
   129    1.303058927261e-08
   130    8.490523709424e-09
   131   -4.710426452001e-04
   132   -3.473001312449e-15
   133    2.852659042284e-09
   134    1.970983070506e-09
   135    4.811188462452e-04
   136    2.246025885245e-14
   137    2.110397322537e-10
   138    2.414940688233e-10
   139   -5.516398998182e-05
   140   -5.962384406183e-14
   141    1.522123672804e-10
   142   -4.549397385861e-16
   143    3.264682640594e-16
   144    1.348038034721e-09
   145    4.049092432224e-04
   146   -2.482214619787e-10
   147    5.626239512506e-10
   148    2.856929312561e-09
   149    1.351818119869e-09
   150   -3.800361018288e-10
   151    6.246146453465e-05
   152   -1.045019366393e-15
   153   -5.545421007652e-04
   154   -4.293006644661e-03
   155   -2.141559296414e-02
   156   -7.352576816861e-02
   157   -1.737062270489e-01
   158   -6.346524036366e-02
   159   -2.324849738849e-01
   160   -3.101086674133e-05
   161    2.191283935887e-05
   162    1.496355738171e-15
   163   -9.119731517038e-04
   164   -3.813503140412e-04
   165    4.772524304581e-05
   166   -4.378939916278e-15
   167   -6.015299659955e-04
   168    1.377442085533e-04
   169   -2.324584796179e-04
   170    7.171231803566e-15
   171    6.447538235161e-04
   172   -1.479293954190e-04
   173    2.248933898728e-04
   174   -2.853010174521e-14
   175    3.711479962297e-05
   176    5.616351606476e-05
   177    4.211455282002e-05
   178    6.157360648621e-14
   179    9.334068476214e-05
   180    6.565913752069e-16
   181    2.473882268742e-17
   182   -2.317612075809e-04
   183   -3.483411957198e-06
   184   -2.083989936413e-04
   185   -2.531401441431e-04
   186    7.140873367945e-05
   187    1.336277441145e-04
   188   -1.256872277982e-04
   189   -1.552357690959e-04
   190   -5.802358054989e-16
   191   -5.545321296805e-04
   192   -4.292929451163e-03
   193   -2.141520789783e-02
   194   -7.352444606514e-02
   195   -1.737031039976e-01
   196   -6.346409946718e-02
   197   -2.324807917618e-01
   198    3.101231428071e-05
   199    2.191177330700e-05
   200   -4.538430715827e-16
   201   -9.119625952700e-04
   202    3.813557231826e-04
   203    4.772853250171e-05
   204    5.400249468488e-16
   205   -6.014931354758e-04
   206   -1.377575292497e-04
   207   -2.324438331308e-04
   208   -6.675322789930e-15
   209    6.447481884759e-04
   210    1.479321936969e-04
   211    2.248970132524e-04
   212    2.517782058219e-14
   213    3.711457029140e-05
   214   -5.616361291305e-05
   215    4.211373530867e-05
   216   -7.826159108459e-14
   217    9.333932165672e-05
   218    1.204231495836e-15
   219   -7.240244446465e-16
   220   -2.317646954524e-04
   221    3.484636448223e-06
   222   -2.083957762578e-04
   223   -2.531345099006e-04
   224    7.141316202036e-05
   225    1.336280222261e-04
   226    1.256863369270e-04
   227   -1.552331025552e-04
   228   -8.056626891447e-16
Sym=X
Ene= -0.088142
Spin=Alpha
Occup=1
     1    2.437003080904e-04
     2    3.939139243292e-04
     3    2.331471324424e-04
     4   -2.166295779927e-05
     5   -2.138218071992e-04
     6    2.073066761836e-10
     7    5.165002738952e-16
     8    7.287369946199e-04
     9    5.641656653214e-03
    10    2.814261005580e-02
    11    9.662500925567e-02
    12    2.282532193716e-01
    13    8.339180647076e-02
    14    3.056190586994e-01
    15    9.388837440293e-05
    16    2.990491316638e-10
    17    1.742615035724e-15
    18    8.676245743331e-04
    19   -5.012423683705e-05
    20    2.297843519029e-09
    21   -3.159301240956e-15
    22    2.273996771380e-03
    23   -1.141995381493e-03
    24   -1.537915079441e-09
    25    5.642344068689e-15
    26   -5.113525598874e-04
    27   -6.583506882979e-05
    28    1.543612465543e-09
    29   -6.504756779462e-14
    30   -2.395028122124e-05
    31    5.635754847379e-05
    32   -1.719305948399e-10
    33    1.203045497443e-12
    34   -1.046674242977e-04
    35   -3.551542224431e-16
    36   -1.639532899286e-16
    37    6.761018722855e-06
    38   -1.332675199657e-09
    39   -2.054082590054e-04
    40   -1.590289343633e-03
    41   -7.932430930779e-03
    42   -2.723776665738e-02
    43   -6.432434881913e-02
    44   -2.349881717629e-02
    45   -8.621990622385e-02
    46   -1.440271556210e-05
    47   -9.631556972206e-05
    48   -1.295133679497e-15
    49   -6.980526063807e-06
    50    2.440123387858e-04
    51   -2.457442460534e-04
    52    5.340236849705e-15
    53   -1.706337364155e-03
    54    3.160204294910e-04
    55    9.918935091996e-04
    56   -1.049642977749e-14
    57   -9.711359172059e-05
    58    2.865229321915e-04
    59    4.223265698448e-05
    60    7.743490144101e-14
    61   -1.107565976573e-05