[Molden Format]
[Atoms] (Angs)
  H      1    1      2.47503475      0.00000000     -0.00000000
  C      2    6      1.39359294      0.00000000     -0.00000000
  C      3    6      0.69679647      1.20688689      0.00000000
  H      4    1      1.23751738      2.14344297      0.00000000
  C      5    6     -0.69679647      1.20688689      0.00000000
  H      6    1     -1.23751738      2.14344297      0.00000000
  C      7    6     -1.39359294     -0.00000000      0.00000000
  H      8    1     -2.47503475     -0.00000000      0.00000000
  C      9    6     -0.69679647     -1.20688689     -0.00000000
  H     10    1     -1.23751738     -2.14344297     -0.00000000
  C     11    6      0.69679647     -1.20688689     -0.00000000
  H     12    1      1.23751738     -2.14344297     -0.00000000
[GTO]
1    0
S    3    1.000000
   3.38650000E+01    2.54938000E-02 
   5.09479000E+00    1.90373000E-01 
   1.15879000E+00    8.52161000E-01 
S    1    1.000000
   3.25840000E-01    1.00000000E+00 
S    1    1.000000
   1.02741000E-01    1.00000000E+00 
S    1    1.000000
   3.60000000E-02    1.00000000E+00 
P    1    1.000000
   7.50000000E-01    1.00000000E+00 

2    0
S    1    1.000000
   4.56324000E+03    1.96665000E-03 
S    1    1.000000
   6.82024000E+02    1.52306000E-02 
S    1    1.000000
   1.54973000E+02    7.61269000E-02 
S    1    1.000000
   4.44553000E+01    2.60801000E-01 
S    1    1.000000
   1.30290000E+01    6.16462000E-01 
S    1    1.000000
   1.82773000E+00    2.21006000E-01 
SP   3    1.000000
   2.09642000E+01    1.14660000E-01   4.02487000E-02 
   4.80331000E+00    9.19999000E-01   2.37594000E-01 
   1.45933000E+00   -3.03068000E-03   8.15854000E-01 
SP   1    1.000000
   4.83456000E-01    1.00000000E+00   1.00000000E+00 
SP   1    1.000000
   1.45585000E-01    1.00000000E+00   1.00000000E+00 
SP   1    1.000000
   4.38000000E-02    1.00000000E+00   1.00000000E+00 
SP   1    1.000000
   1.31927711E-02    1.00000000E+00   1.00000000E+00 
D    1    1.000000
   6.26000000E-01    1.00000000E+00 

3    0
S    1    1.000000
   4.56324000E+03    1.96665000E-03 
S    1    1.000000
   6.82024000E+02    1.52306000E-02 
S    1    1.000000
   1.54973000E+02    7.61269000E-02 
S    1    1.000000
   4.44553000E+01    2.60801000E-01 
S    1    1.000000
   1.30290000E+01    6.16462000E-01 
S    1    1.000000
   1.82773000E+00    2.21006000E-01 
SP   3    1.000000
   2.09642000E+01    1.14660000E-01   4.02487000E-02 
   4.80331000E+00    9.19999000E-01   2.37594000E-01 
   1.45933000E+00   -3.03068000E-03   8.15854000E-01 
SP   1    1.000000
   4.83456000E-01    1.00000000E+00   1.00000000E+00 
SP   1    1.000000
   1.45585000E-01    1.00000000E+00   1.00000000E+00 
SP   1    1.000000
   4.38000000E-02    1.00000000E+00   1.00000000E+00 
SP   1    1.000000
   1.31927711E-02    1.00000000E+00   1.00000000E+00 
D    1    1.000000
   6.26000000E-01    1.00000000E+00 

4    0
S    3    1.000000
   3.38650000E+01    2.54938000E-02 
   5.09479000E+00    1.90373000E-01 
   1.15879000E+00    8.52161000E-01 
S    1    1.000000
   3.25840000E-01    1.00000000E+00 
S    1    1.000000
   1.02741000E-01    1.00000000E+00 
S    1    1.000000
   3.60000000E-02    1.00000000E+00 
P    1    1.000000
   7.50000000E-01    1.00000000E+00 

5    0
S    1    1.000000
   4.56324000E+03    1.96665000E-03 
S    1    1.000000
   6.82024000E+02    1.52306000E-02 
S    1    1.000000
   1.54973000E+02    7.61269000E-02 
S    1    1.000000
   4.44553000E+01    2.60801000E-01 
S    1    1.000000
   1.30290000E+01    6.16462000E-01 
S    1    1.000000
   1.82773000E+00    2.21006000E-01 
SP   3    1.000000
   2.09642000E+01    1.14660000E-01   4.02487000E-02 
   4.80331000E+00    9.19999000E-01   2.37594000E-01 
   1.45933000E+00   -3.03068000E-03   8.15854000E-01 
SP   1    1.000000
   4.83456000E-01    1.00000000E+00   1.00000000E+00 
SP   1    1.000000
   1.45585000E-01    1.00000000E+00   1.00000000E+00 
SP   1    1.000000
   4.38000000E-02    1.00000000E+00   1.00000000E+00 
SP   1    1.000000
   1.31927711E-02    1.00000000E+00   1.00000000E+00 
D    1    1.000000
   6.26000000E-01    1.00000000E+00 

6    0
S    3    1.000000
   3.38650000E+01    2.54938000E-02 
   5.09479000E+00    1.90373000E-01 
   1.15879000E+00    8.52161000E-01 
S    1    1.000000
   3.25840000E-01    1.00000000E+00 
S    1    1.000000
   1.02741000E-01    1.00000000E+00 
S    1    1.000000
   3.60000000E-02    1.00000000E+00 
P    1    1.000000
   7.50000000E-01    1.00000000E+00 

7    0
S    1    1.000000
   4.56324000E+03    1.96665000E-03 
S    1    1.000000
   6.82024000E+02    1.52306000E-02 
S    1    1.000000
   1.54973000E+02    7.61269000E-02 
S    1    1.000000
   4.44553000E+01    2.60801000E-01 
S    1    1.000000
   1.30290000E+01    6.16462000E-01 
S    1    1.000000
   1.82773000E+00    2.21006000E-01 
SP   3    1.000000
   2.09642000E+01    1.14660000E-01   4.02487000E-02 
   4.80331000E+00    9.19999000E-01   2.37594000E-01 
   1.45933000E+00   -3.03068000E-03   8.15854000E-01 
SP   1    1.000000
   4.83456000E-01    1.00000000E+00   1.00000000E+00 
SP   1    1.000000
   1.45585000E-01    1.00000000E+00   1.00000000E+00 
SP   1    1.000000
   4.38000000E-02    1.00000000E+00   1.00000000E+00 
SP   1    1.000000
   1.31927711E-02    1.00000000E+00   1.00000000E+00 
D    1    1.000000
   6.26000000E-01    1.00000000E+00 

8    0
S    3    1.000000
   3.38650000E+01    2.54938000E-02 
   5.09479000E+00    1.90373000E-01 
   1.15879000E+00    8.52161000E-01 
S    1    1.000000
   3.25840000E-01    1.00000000E+00 
S    1    1.000000
   1.02741000E-01    1.00000000E+00 
S    1    1.000000
   3.60000000E-02    1.00000000E+00 
P    1    1.000000
   7.50000000E-01    1.00000000E+00 

9    0
S    1    1.000000
   4.56324000E+03    1.96665000E-03 
S    1    1.000000
   6.82024000E+02    1.52306000E-02 
S    1    1.000000
   1.54973000E+02    7.61269000E-02 
S    1    1.000000
   4.44553000E+01    2.60801000E-01 
S    1    1.000000
   1.30290000E+01    6.16462000E-01 
S    1    1.000000
   1.82773000E+00    2.21006000E-01 
SP   3    1.000000
   2.09642000E+01    1.14660000E-01   4.02487000E-02 
   4.80331000E+00    9.19999000E-01   2.37594000E-01 
   1.45933000E+00   -3.03068000E-03   8.15854000E-01 
SP   1    1.000000
   4.83456000E-01    1.00000000E+00   1.00000000E+00 
SP   1    1.000000
   1.45585000E-01    1.00000000E+00   1.00000000E+00 
SP   1    1.000000
   4.38000000E-02    1.00000000E+00   1.00000000E+00 
SP   1    1.000000
   1.31927711E-02    1.00000000E+00   1.00000000E+00 
D    1    1.000000
   6.26000000E-01    1.00000000E+00 

10    0
S    3    1.000000
   3.38650000E+01    2.54938000E-02 
   5.09479000E+00    1.90373000E-01 
   1.15879000E+00    8.52161000E-01 
S    1    1.000000
   3.25840000E-01    1.00000000E+00 
S    1    1.000000
   1.02741000E-01    1.00000000E+00 
S    1    1.000000
   3.60000000E-02    1.00000000E+00 
P    1    1.000000
   7.50000000E-01    1.00000000E+00 

11    0
S    1    1.000000
   4.56324000E+03    1.96665000E-03 
S    1    1.000000
   6.82024000E+02    1.52306000E-02 
S    1    1.000000
   1.54973000E+02    7.61269000E-02 
S    1    1.000000
   4.44553000E+01    2.60801000E-01 
S    1    1.000000
   1.30290000E+01    6.16462000E-01 
S    1    1.000000
   1.82773000E+00    2.21006000E-01 
SP   3    1.000000
   2.09642000E+01    1.14660000E-01   4.02487000E-02 
   4.80331000E+00    9.19999000E-01   2.37594000E-01 
   1.45933000E+00   -3.03068000E-03   8.15854000E-01 
SP   1    1.000000
   4.83456000E-01    1.00000000E+00   1.00000000E+00 
SP   1    1.000000
   1.45585000E-01    1.00000000E+00   1.00000000E+00 
SP   1    1.000000
   4.38000000E-02    1.00000000E+00   1.00000000E+00 
SP   1    1.000000
   1.31927711E-02    1.00000000E+00   1.00000000E+00 
D    1    1.000000
   6.26000000E-01    1.00000000E+00 

12    0
S    3    1.000000
   3.38650000E+01    2.54938000E-02 
   5.09479000E+00    1.90373000E-01 
   1.15879000E+00    8.52161000E-01 
S    1    1.000000
   3.25840000E-01    1.00000000E+00 
S    1    1.000000
   1.02741000E-01    1.00000000E+00 
S    1    1.000000
   3.60000000E-02    1.00000000E+00 
P    1    1.000000
   7.50000000E-01    1.00000000E+00 

[MO]
Sym=X
Ene= -0.002068
Spin=Alpha
Occup=1
     1    2.850457822166e-04
     2    3.977790738971e-04
     3   -1.580933086275e-04
     4   -4.867849902016e-05
     5   -2.768822488555e-04
     6    9.317228478393e-11
     7    3.341341119888e-16
     8    7.323234190321e-04
     9    5.669437087528e-03
    10    2.828099081144e-02
    11    9.710033390177e-02
    12    2.293682272475e-01
    13    8.369281152698e-02
    14    3.071125116885e-01
    15    5.410336824176e-05
    16    4.421889478526e-10
    17    2.321714644969e-15
    18    1.383448019198e-03
    19   -3.192873745807e-04
    20    1.280114187168e-09
    21   -4.191160192568e-15
    22    5.044865500873e-04
    23   -1.424943901815e-04
    24   -3.967197780872e-10
    25    9.492633332869e-15
    26   -3.683730054164e-04
    27    1.082801705758e-04
    28    4.379794235851e-10
    29   -2.585368053090e-14
    30   -5.196624300026e-05
    31    1.129645107869e-04
    32   -4.306268088594e-10
    33   -1.545829384981e-13
    34   -1.178855630957e-04
    35   -3.818644863365e-16
    36   -8.670699200583e-16
    37   -1.452307956208e-04
    38   -7.069946840337e-10
    39    1.983905946089e-04
    40    1.535860209674e-03
    41    7.661446792080e-03
    42    2.630402783888e-02
    43    6.213648562422e-02
    44    2.259966194739e-02
    45    8.316583174219e-02
    46    3.934905831781e-05
    47   -4.724623666542e-05
    48   -2.792986025198e-16
    49    7.699780677291e-04
    50   -1.466834631676e-05
    51   -4.240450731536e-04
    52    3.074296591511e-15
    53   -1.765208922298e-04
    54    1.813921083556e-05
    55    1.627749418319e-04
    56   -5.291486670983e-15
    57    3.850475268506e-04
    58    5.382884698834e-05
    59   -5.892166302220e-05
    60    1.303343469885e-14
    61   -1.297945374728e-07
    62   -6.347258333332e-05
    63    2.125165222478e-05
    64    1.791531636854e-13
    65   -4.790362890701e-05
    66    6.687476504558e-16
    67   -6.322042262278e-16
    68   -9.720466662024e-06
    69   -1.986621001171e-04
    70    1.057613050339e-04
    71    2.009440548263e-04
    72   -2.072205875745e-04
    73    1.457579749378e-05
    74   -5.820222636936e-05
    75   -1.291308302121e-04
    76    3.856066595977e-18
    77    1.983869584360e-04
    78    1.535832059300e-03
    79    7.661306369429e-03
    80    2.630354570330e-02
    81    6.213534674755e-02
    82    2.259924593209e-02
    83    8.316430661383e-02
    84   -3.934844685076e-05
    85   -4.724648490557e-05
    86    8.757718610385e-16
    87    7.699738957607e-04
    88    1.466971390306e-05
    89   -4.240447009754e-04
    90    5.898350672190e-16
    91   -1.765255462226e-04
    92   -1.814061967603e-05
    93    1.627764480273e-04
    94   -2.260664866785e-15
    95    3.850528661375e-04
    96   -5.382781910098e-05
    97   -5.892221601184e-05
    98    4.662536617070e-15
    99   -1.294211396144e-07
   100    6.347263021411e-05
   101    2.125070811832e-05
   102   -2.076245361230e-13
   103   -4.790314735738e-05
   104    3.139723666195e-16
   105    7.178016164659e-16
   106   -9.719752581418e-06
   107    1.986618520188e-04
   108    1.057600841592e-04
   109    2.009427057572e-04
   110   -2.072209163592e-04
   111    1.457626196717e-05
   112    5.820184608833e-05
   113   -1.291299785708e-04
   114   -2.693296547902e-16
   115    7.323234112050e-04
   116    5.669437026931e-03
   117    2.828099050917e-02
   118    9.710033286397e-02
   119    2.293682247958e-01
   120    8.369281063128e-02
   121    3.071125084063e-01
   122   -5.410336752142e-05
   123   -4.513050145953e-10
   124   -1.977587100063e-16
   125    1.383448008777e-03
   126    3.192873736235e-04
   127   -1.363784522640e-09
   128    1.576934927712e-15
   129    5.044865317851e-04
   130    1.424943818038e-04
   131    4.525586900794e-10
   132    3.736267343707e-16
   133   -3.683729948695e-04
   134   -1.082801713612e-04
   135   -4.972725583358e-10
   136   -7.942351118344e-16
   137   -5.196624253301e-05
   138   -1.129645101922e-04
   139    4.369665760641e-10
   140    2.064578236944e-13
   141   -1.178855619308e-04
   142    4.945658620183e-16
   143    1.243174132088e-15
   144   -1.452307952270e-04
   145   -7.548828675490e-10
   146    2.850457794915e-04
   147    3.977790700176e-04
   148   -1.580933101565e-04
   149   -4.867849924902e-05
   150    2.768822464295e-04
   151   -1.005703102448e-10
   152   -2.871216939672e-17
   153    1.983906605886e-04
   154    1.535860720459e-03
   155    7.661449340112e-03
   156    2.630403658701e-02
   157    6.213650629170e-02
   158    2.259966949837e-02
   159    8.316585940413e-02
   160   -3.934905452568e-05
   161    4.724623322772e-05
   162   -1.184668459659e-15
   163    7.699781737765e-04
   164    1.466839496452e-05
   165    4.240450642325e-04
   166    1.012165751990e-16
   167   -1.765208106101e-04
   168   -1.813922665396e-05
   169   -1.627749070383e-04
   170    1.806394330643e-15
   171    3.850474507509e-04
   172   -5.382882321021e-05
   173    5.892163479464e-05
   174   -1.263032878808e-14
   175   -1.297987915362e-07
   176    6.347257667622e-05
   177   -2.125165675541e-05
   178   -1.790366925083e-13
   179   -4.790363987169e-05
   180    8.093279968032e-16
   181   -4.258991451336e-16
   182   -9.720437471219e-06
   183   -1.986620973868e-04
   184    1.057613296226e-04
   185    2.009440851848e-04
   186   -2.072205937069e-04
   187    1.457578297512e-05
   188    5.820224148199e-05
   189    1.291308481540e-04
   190    5.150107304542e-16
   191    1.983870236092e-04
   192    1.535832563849e-03
   193    7.661308886366e-03
   194    2.630355434462e-02
   195    6.213536716306e-02
   196    2.259925339105e-02
   197    8.316433393658e-02
   198    3.934844326748e-05
   199    4.724648314180e-05
   200    7.452073992162e-16
   201    7.699740053654e-04
   202   -1.466975539273e-05
   203    4.240446986114e-04
   204    3.433358616501e-16
   205   -1.765254852998e-04
   206    1.814063656538e-05
   207   -1.627764277469e-04
   208   -6.712326447955e-15
   209    3.850527818886e-04
   210    5.382780545929e-05
   211    5.892219043653e-05
   212    2.310224635022e-14
   213   -1.294258390942e-07
   214   -6.347262394040e-05
   215   -2.125071337313e-05
   216    1.530479195936e-13
   217   -4.790315849624e-05
   218    1.857301455637e-16
   219   -1.412990255901e-16
   220   -9.719726960606e-06
   221    1.986618539377e-04
   222    1.057601088854e-04
   223    2.009427351055e-04
   224   -2.072209267473e-04
   225    1.457624556474e-05
   226   -5.820186070324e-05
   227    1.291299973208e-04
   228   -2.161209886110e-16
Sym=X
Ene= -0.007660
Spin=Alpha
Occup=1
     1    2.796552598629e-10
     2   -5.161974010445e-10
     3   -2.882001812953e-09
     4   -1.358159989293e-09
     5   -4.124146371578e-10
     6    6.246146465398e-05
     7   -9.227278274282e-16
     8    3.647911230615e-11
     9    2.814169276869e-10
    10    1.409917907694e-09
    11    4.810301514415e-09
    12    1.158492026021e-08
    13    4.245362183151e-09
    14    1.438070346386e-08
    15   -7.793504210136e-10
    16    7.562596368291e-05
    17   -6.093032438778e-17
    18    2.981344313798e-09
    19   -1.304205657615e-09
    20    7.082496766539e-04
    21    2.710481761802e-16
    22   -1.299196083055e-08
    23    8.484754742081e-09
    24   -4.710426453855e-04
    25   -2.144984584457e-16
    26   -2.881067158579e-09
    27    1.985026494133e-09
    28    4.811188329193e-04
    29   -1.807367310981e-14
    30   -2.170632454273e-10
    31    2.512015798979e-10
    32   -5.516399023899e-05
    33    9.840092224395e-14
    34   -1.654425019996e-10
    35    8.772426285375e-16
    36   -4.781619578624e-16
    37   -1.369535902544e-09
    38   -4.049092442435e-04
    39    5.545421440084e-04
    40    4.293006979444e-03
    41    2.141559463415e-02
    42    7.352577390237e-02
    43    1.737062405932e-01
    44    6.346524529778e-02
    45    2.324849920165e-01
    46   -3.101086341913e-05
    47    2.191283648654e-05
    48   -5.751822093472e-16
    49    9.119732776264e-04
    50   -3.813503269607e-04
    51    4.772519158447e-05
    52    1.490773845511e-15
    53    6.015299606427e-04
    54    1.377442102832e-04
    55   -2.324584660492e-04
    56   -2.862819208469e-15
    57   -6.447537877542e-04
    58   -1.479293781541e-04
    59    2.248933797821e-04
    60    1.581529267846e-14
    61   -3.711480087905e-05
    62    5.616351346822e-05
    63    4.211455596088e-05
    64   -9.965356681267e-14
    65   -9.334069349313e-05
    66   -5.570262382638e-16
    67    3.566738869538e-16
    68    2.317612121813e-04
    69    3.483388228993e-06
    70    2.083990136517e-04
    71    2.531401781085e-04
    72   -7.140876144334e-05
    73   -1.336277439616e-04
    74   -1.256872387530e-04
    75   -1.552357901725e-04
    76   -3.852873540747e-16
    77    5.545321678489e-04
    78    4.292929746648e-03
    79    2.141520937183e-02
    80    7.352445112587e-02
    81    1.737031159521e-01
    82    6.346410382049e-02
    83    2.324808077644e-01
    84    3.101231180531e-05
    85    2.191177010852e-05
    86   -5.649371669743e-16
    87    9.119627154041e-04
    88    3.813557380539e-04
    89    4.772848153529e-05
    90    7.958847281358e-16
    91    6.014931235410e-04
    92   -1.377575336885e-04
    93   -2.324438179916e-04
    94   -3.422850447349e-16
    95   -6.447481394315e-04
    96    1.479322038700e-04
    97    2.248970127782e-04
    98   -1.782971353498e-14
    99   -3.711457035771e-05
   100   -5.616360960163e-05
   101    4.211373833793e-05
   102    8.130663989883e-14
   103   -9.333932971992e-05
   104   -6.215782549204e-16
   105    4.052026363861e-16
   106    2.317647010426e-04
   107   -3.484613051724e-06
   108    2.083957945886e-04
   109    2.531345419236e-04
   110   -7.141318973137e-05
   111   -1.336280187076e-04
   112    1.256863473758e-04
   113   -1.552331224409e-04
   114   -4.787301085811e-16
   115    4.076493053976e-11
   116    3.165880671904e-10
   117    1.573131002318e-09
   118    5.431688460374e-09
   119    1.260858532698e-08
   120    4.578965254673e-09
   121    1.801159763592e-08
   122   -7.833368104541e-10
   123    7.562596312140e-05
   124   -4.073313106404e-16
   125   -2.816475646049e-09
   126   -1.256626215514e-09
   127    7.082496747559e-04
   128    4.068673220768e-16
   129    1.303058909332e-08
   130    8.490523605718e-09
   131   -4.710426452001e-04
   132   -3.473001312448e-15
   133    2.852659339891e-09
   134    1.970983269133e-09
   135    4.811188462452e-04
   136    2.246025885245e-14
   137    2.110397624094e-10
   138    2.414940888845e-10
   139   -5.516398998179e-05
   140   -5.962384406183e-14
   141    1.522123501259e-10
   142   -4.549397385861e-16
   143    3.264682640594e-16
   144    1.348038023055e-09
   145    4.049092432224e-04
   146   -2.482214531821e-10
   147    5.626239351441e-10
   148    2.856929316859e-09
   149    1.351818262071e-09
   150   -3.800361040274e-10
   151    6.246146453465e-05
   152   -1.045019366393e-15
   153   -5.545421007651e-04
   154   -4.293006644661e-03
   155   -2.141559296413e-02
   156   -7.352576816860e-02
   157   -1.737062270489e-01
   158   -6.346524036366e-02
   159   -2.324849738849e-01
   160   -3.101086674135e-05
   161    2.191283935888e-05
   162    1.496355738170e-15
   163   -9.119731517037e-04
   164   -3.813503140412e-04
   165    4.772524304582e-05
   166   -4.378939916278e-15
   167   -6.015299659953e-04
   168    1.377442085533e-04
   169   -2.324584796179e-04
   170    7.171231803566e-15
   171    6.447538235154e-04
   172   -1.479293954191e-04
   173    2.248933898726e-04
   174   -2.853010174521e-14
   175    3.711479962291e-05
   176    5.616351606473e-05
   177    4.211455281996e-05
   178    6.157360648621e-14
   179    9.334068476213e-05
   180    6.565913752069e-16
   181    2.473882268740e-17
   182   -2.317612075809e-04
   183   -3.483411957195e-06
   184   -2.083989936413e-04
   185   -2.531401441431e-04
   186    7.140873367944e-05
   187    1.336277441144e-04
   188   -1.256872277982e-04
   189   -1.552357690959e-04
   190   -5.802358054989e-16
   191   -5.545321296805e-04
   192   -4.292929451163e-03
   193   -2.141520789783e-02
   194   -7.352444606514e-02
   195   -1.737031039976e-01
   196   -6.346409946718e-02
   197   -2.324807917618e-01
   198    3.101231428071e-05
   199    2.191177330701e-05
   200   -4.538430715827e-16
   201   -9.119625952699e-04
   202    3.813557231826e-04
   203    4.772853250172e-05
   204    5.400249468488e-16
   205   -6.014931354759e-04
   206   -1.377575292496e-04
   207   -2.324438331309e-04
   208   -6.675322789930e-15
   209    6.447481884760e-04
   210    1.479321936968e-04
   211    2.248970132524e-04
   212    2.517782058219e-14
   213    3.711457029140e-05
   214   -5.616361291304e-05
   215    4.211373530869e-05
   216   -7.826159108459e-14
   217    9.333932165673e-05
   218    1.204231495836e-15
   219   -7.240244446465e-16
   220   -2.317646954524e-04
   221    3.484636448227e-06
   222   -2.083957762578e-04
   223   -2.531345099007e-04
   224    7.141316202036e-05
   225    1.336280222261e-04
   226    1.256863369270e-04
   227   -1.552331025552e-04
   228   -8.056626891447e-16
Sym=X
Ene= -0.085507
Spin=Alpha
Occup=1
     1    2.742712696901e-04
     2    3.996246625512e-04
     3    1.210279208141e-04
     4   -8.447152409303e-05
     5   -2.481797025040e-04
     6   -6.038866145072e-12
     7    5.073851249530e-16
     8    7.843222801813e-04
     9    6.071935360152e-03
    10    3.028927340601e-02
    11    1.039939878737e-01
    12    2.456707665986e-01
    13    8.975634223140e-02
    14    3.288887993651e-01
    15    6.556292350749e-05
    16    4.548091116910e-11
    17    1.760904949068e-15
    18    1.065229730072e-03
    19   -1.120016546161e-04
    20   -1.178574511063e-10
    21   -3.151163173598e-15
    22    1.858090476116e-03
    23   -8.445632081192e-04
    24    6.967072000481e-11
    25    8.370432697241e-15
    26   -6.838139048363e-04
    27    1.836238721138e-05
    28   -1.043214660364e-10
    29   -7.926553806765e-14
    30   -3.563867058998e-05
    31    7.196837865816e-05
    32    1.635415022842e-11
    33    1.267206302625e-12
    34   -1.197994846277e-04
    35   -6.578655086692e-16
    36   -4.953271541267e-17
    37   -5.433147475455e-05
    38    4.813330009570e-11
    39    5.276512225994e-06
    40    4.077070305211e-05
    41    2.038601551907e-04
    42    6.975362786113e-04
    43    1.665237370658e-03
    44    6.102452953081e-04
    45    2.140807982048e-03
    46    1.631752870310e-05
    47   -7.942012106907e-05
    48   -3.171932156617e-16
    49    2.333105984032e-04
    50    3.863561492970e-04
    51   -3.392800170111e-04
    52    4.750330464516e-15
    53   -1.001605490578e-03
    54    3.756967946335e-05
    55    7.357846790817e-04
    56   -1.217951272404e-14
    57   -2.342399672064e-04
    58    3.734608905612e-04
    59   -3.820674176384e-05
    60    9.154282974146e-14
    61   -1.720849130780e-05
    62   -2.403757081582e-05
    63    3.691300137958e-05
    64   -1.296566973753e-12
    65   -1.310623233824e-05
    66   -3.505928185123e-16
    67    3.700574717488e-16
    68   -1.964643073423e-04
    69   -2.362593959388e-04
    70    2.246326706120e-05
    71   -3.918551366746e-05
    72   -2.227089111093e-04
    73   -1.057994789904e-04
    74    2.214864423982e-05
    75   -5.057556797150e-05
    76    4.400587275569e-16
    77   -5.276612090715e-06
    78   -4.077147616122e-05
    79   -2.038640118590e-04
    80   -6.975495195018e-04
    81   -1.665268653943e-03
    82   -6.102567322763e-04
    83   -2.140849845536e-03
    84    1.631752486607e-05
    85    7.942011932410e-05
    86    1.418988349799e-15
    87   -2.333107527447e-04
    88    3.863560702942e-04
    89    3.392799953268e-04
    90   -1.469828120018e-15
    91    1.001605371738e-03
    92    3.756971305998e-05
    93   -7.357846354454e-04
    94    1.282092753453e-14
    95    2.342402115022e-04
    96    3.734608228248e-04
    97    3.820669517040e-05
    98   -8.992182355940e-14
    99    1.720850356776e-05
   100   -2.403756194530e-05
   101   -3.691301517651e-05
   102    1.299520039930e-12
   103    1.310624515711e-05
   104    6.430424408764e-16
   105    3.128155926870e-16
   106    1.964642645138e-04
   107   -2.362593894041e-04
   108   -2.246330383828e-05
   109    3.918546937960e-05
   110    2.227089196022e-04
   111    1.057994937977e-04
   112    2.214862274327e-05
   113    5.057559701299e-05
   114   -8.144802039210e-17
   115   -7.843222866701e-04
   116   -6.071935410369e-03
   117   -3.028927365654e-02
   118   -1.039939887338e-01
   119   -2.456707686305e-01
   120   -8.975634297254e-02
   121   -3.288888020855e-01
   122    6.556292384025e-05
   123    5.696018264289e-11
   124    2.071752946401e-16
   125   -1.065229743992e-03
   126   -1.120016586840e-04
   127   -7.899924896364e-11
   128    1.815093568307e-15
   129   -1.858090479357e-03
   130   -8.445632085254e-04
   131    5.660878696291e-11
   132   -5.625329699585e-15
   133    6.838139093835e-04
   134    1.836238909608e-05
   135   -7.892832543246e-11
   136    7.347797846148e-14
   137    3.563867126537e-05
   138    7.196838017227e-05
   139    3.041316352364e-12
   140   -1.263750424330e-12
   141    1.197994857414e-04
   142   -2.483453838415e-16
   143    9.464150732745e-17
   144    5.433147655652e-05
   145   -2.706188567286e-11
   146   -2.742712723384e-04
   147   -3.996246664631e-04
   148   -1.210279186063e-04
   149    8.447152485766e-05
   150   -2.481797052221e-04
   151   -3.257339224080e-12
   152   -6.459199044310e-16
   153   -5.276567906741e-06
   154   -4.077113412446e-05
   155   -2.038623055023e-04
   156   -6.975436616045e-04
   157   -1.665254810446e-03
   158   -6.102516652300e-04
   159   -2.140831335855e-03
   160    1.631753750300e-05
   161   -7.942011775936e-05
   162    4.334717120525e-16
   163   -2.333106687881e-04
   164    3.863561676796e-04
   165   -3.392800264182e-04
   166   -1.396111451420e-15
   167    1.001605424363e-03
   168    3.756966006542e-05
   169    7.357846586642e-04
   170    2.574303343729e-15
   171    2.342400449471e-04
   172    3.734608970936e-04
   173   -3.820672693642e-05
   174   -6.182215388520e-14
   175    1.720849715481e-05
   176   -2.403757113795e-05
   177    3.691301655141e-05
   178    1.237589359262e-12
   179    1.310623990331e-05
   180    5.887586187267e-17
   181    5.572675474904e-16
   182    1.964643170825e-04
   183    2.362594013554e-04
   184   -2.246328621862e-05
   185    3.918549159150e-05
   186    2.227089090073e-04
   187    1.057994868592e-04
   188    2.214863787095e-05
   189   -5.057558191422e-05
   190    8.560759943813e-16
   191    5.276660813972e-06
   192    4.077185335222e-05
   193    2.038658934177e-04
   194    6.975559797574e-04
   195    1.665283914056e-03
   196    6.102623082894e-04
   197    2.140870281458e-03
   198    1.631753319476e-05
   199    7.942011551019e-05
   200   -1.137777591582e-16
   201    2.333108022337e-04
   202    3.863560910825e-04
   203    3.392799961031e-04
   204    7.954323556086e-16
   205   -1.001605304103e-03
   206    3.756969316272e-05
   207   -7.357846126717e-04
   208   -6.592754345748e-15
   209   -2.342402985708e-04
   210    3.734608288595e-04
   211    3.820667872333e-05
   212    6.696377032797e-14
   213   -1.720850945451e-05
   214   -2.403756043918e-05
   215   -3.691302985273e-05
   216   -1.244792075276e-12
   217   -1.310625130409e-05
   218   -9.745601835027e-17
   219   -6.630171926647e-16
   220   -1.964642751781e-04
   221    2.362593908456e-04
   222    2.246331972736e-05
   223   -3.918545294156e-05
   224   -2.227089128541e-04
   225   -1.057995022305e-04
   226    2.214861821015e-05
   227    5.057560746654e-05
   228   -2.956819734030e-16
Sym=X
Ene= -0.151392
Spin=Alpha
Occup=1
     1    2.663130354786e-05
     2   -6.362590726852e-05
     3   -3.195697284671e-04
     4   -1.490379222589e-04
     5   -4.175778305834e-05
     6   -5.615553774904e-10
     7   -1.239512264064e-16
     8   -7.821075071195e-06
     9   -6.065915831599e-05
    10   -3.019096891438e-04
    11   -1.039967483506e-03
    12   -2.431977722139e-03
    13   -8.858972394383e-04
    14   -3.381843448307e-03
    15   -8.762428137651e-05
    16   -6.777959419500e-10
    17   -2.984923060454e-16
    18    3.114738361939e-04
    19   -1.411609224337e-04
    20   -6.348720689734e-09
    21    6.419543987727e-16
    22   -1.462914218671e-03
    23    9.508420016097e-04
    24    4.226632487086e-09
    25    5.547713781203e-15
    26   -3.202553984387e-04
    27    2.184730942895e-04
    28   -4.326236333653e-09
    29   -2.189493611005e-14
    30   -2.381309476157e-05
    31    2.700576927721e-05
    32    4.934210102786e-10
    33   -8.028492363511e-14
    34   -1.632459512504e-05
    35   -6.689269055858e-16
    36    3.115621037945e-16
    37   -1.504462231595e-04
    38    3.632699788236e-09
    39    5.546871403837e-04
    40    4.294241510938e-03
    41    2.142106555684e-02
    42    7.354798349806e-02
    43    1.737337433808e-01
    44    6.347264453017e-02
    45    2.326487327212e-01
    46    7.781816380891e-05
    47    6.020379666946e-05
    48    2.641984856255e-15
    49    5.878785437380e-04
    50    2.993857051391e-04
    51   -1.799137222199e-04
    52   -2.491381175356e-15
    53    2.056104883177e-03
    54   -7.418711451753e-04
    55   -8.204235118837e-04
    56   -2.041250436934e-15
    57   -3.155764626710e-04
    58    1.557801014567e-04
    59   -2.046529071837e-04
    60    1.918718278412e-14
    61   -1.278816872690e-05