[Molden Format]
[Atoms] (Angs)
  H      1    1      2.47503475      0.00000000     -0.00000000
  C      2    6      1.39359294      0.00000000     -0.00000000
  C      3    6      0.69679647      1.20688689      0.00000000
  H      4    1      1.23751738      2.14344297      0.00000000
  C      5    6     -0.69679647      1.20688689      0.00000000
  H      6    1     -1.23751738      2.14344297      0.00000000
  C      7    6     -1.39359294     -0.00000000      0.00000000
  H      8    1     -2.47503475     -0.00000000      0.00000000
  C      9    6     -0.69679647     -1.20688689     -0.00000000
  H     10    1     -1.23751738     -2.14344297     -0.00000000
  C     11    6      0.69679647     -1.20688689     -0.00000000
  H     12    1      1.23751738     -2.14344297     -0.00000000
[GTO]
1    0
S    3    1.000000
   3.38650000E+01    2.54938000E-02 
   5.09479000E+00    1.90373000E-01 
   1.15879000E+00    8.52161000E-01 
S    1    1.000000
   3.25840000E-01    1.00000000E+00 
S    1    1.000000
   1.02741000E-01    1.00000000E+00 
S    1    1.000000
   3.60000000E-02    1.00000000E+00 
P    1    1.000000
   7.50000000E-01    1.00000000E+00 

2    0
S    1    1.000000
   4.56324000E+03    1.96665000E-03 
S    1    1.000000
   6.82024000E+02    1.52306000E-02 
S    1    1.000000
   1.54973000E+02    7.61269000E-02 
S    1    1.000000
   4.44553000E+01    2.60801000E-01 
S    1    1.000000
   1.30290000E+01    6.16462000E-01 
S    1    1.000000
   1.82773000E+00    2.21006000E-01 
SP   3    1.000000
   2.09642000E+01    1.14660000E-01   4.02487000E-02 
   4.80331000E+00    9.19999000E-01   2.37594000E-01 
   1.45933000E+00   -3.03068000E-03   8.15854000E-01 
SP   1    1.000000
   4.83456000E-01    1.00000000E+00   1.00000000E+00 
SP   1    1.000000
   1.45585000E-01    1.00000000E+00   1.00000000E+00 
SP   1    1.000000
   4.38000000E-02    1.00000000E+00   1.00000000E+00 
SP   1    1.000000
   1.31927711E-02    1.00000000E+00   1.00000000E+00 
D    1    1.000000
   6.26000000E-01    1.00000000E+00 

3    0
S    1    1.000000
   4.56324000E+03    1.96665000E-03 
S    1    1.000000
   6.82024000E+02    1.52306000E-02 
S    1    1.000000
   1.54973000E+02    7.61269000E-02 
S    1    1.000000
   4.44553000E+01    2.60801000E-01 
S    1    1.000000
   1.30290000E+01    6.16462000E-01 
S    1    1.000000
   1.82773000E+00    2.21006000E-01 
SP   3    1.000000
   2.09642000E+01    1.14660000E-01   4.02487000E-02 
   4.80331000E+00    9.19999000E-01   2.37594000E-01 
   1.45933000E+00   -3.03068000E-03   8.15854000E-01 
SP   1    1.000000
   4.83456000E-01    1.00000000E+00   1.00000000E+00 
SP   1    1.000000
   1.45585000E-01    1.00000000E+00   1.00000000E+00 
SP   1    1.000000
   4.38000000E-02    1.00000000E+00   1.00000000E+00 
SP   1    1.000000
   1.31927711E-02    1.00000000E+00   1.00000000E+00 
D    1    1.000000
   6.26000000E-01    1.00000000E+00 

4    0
S    3    1.000000
   3.38650000E+01    2.54938000E-02 
   5.09479000E+00    1.90373000E-01 
   1.15879000E+00    8.52161000E-01 
S    1    1.000000
   3.25840000E-01    1.00000000E+00 
S    1    1.000000
   1.02741000E-01    1.00000000E+00 
S    1    1.000000
   3.60000000E-02    1.00000000E+00 
P    1    1.000000
   7.50000000E-01    1.00000000E+00 

5    0
S    1    1.000000
   4.56324000E+03    1.96665000E-03 
S    1    1.000000
   6.82024000E+02    1.52306000E-02 
S    1    1.000000
   1.54973000E+02    7.61269000E-02 
S    1    1.000000
   4.44553000E+01    2.60801000E-01 
S    1    1.000000
   1.30290000E+01    6.16462000E-01 
S    1    1.000000
   1.82773000E+00    2.21006000E-01 
SP   3    1.000000
   2.09642000E+01    1.14660000E-01   4.02487000E-02 
   4.80331000E+00    9.19999000E-01   2.37594000E-01 
   1.45933000E+00   -3.03068000E-03   8.15854000E-01 
SP   1    1.000000
   4.83456000E-01    1.00000000E+00   1.00000000E+00 
SP   1    1.000000
   1.45585000E-01    1.00000000E+00   1.00000000E+00 
SP   1    1.000000
   4.38000000E-02    1.00000000E+00   1.00000000E+00 
SP   1    1.000000
   1.31927711E-02    1.00000000E+00   1.00000000E+00 
D    1    1.000000
   6.26000000E-01    1.00000000E+00 

6    0
S    3    1.000000
   3.38650000E+01    2.54938000E-02 
   5.09479000E+00    1.90373000E-01 
   1.15879000E+00    8.52161000E-01 
S    1    1.000000
   3.25840000E-01    1.00000000E+00 
S    1    1.000000
   1.02741000E-01    1.00000000E+00 
S    1    1.000000
   3.60000000E-02    1.00000000E+00 
P    1    1.000000
   7.50000000E-01    1.00000000E+00 

7    0
S    1    1.000000
   4.56324000E+03    1.96665000E-03 
S    1    1.000000
   6.82024000E+02    1.52306000E-02 
S    1    1.000000
   1.54973000E+02    7.61269000E-02 
S    1    1.000000
   4.44553000E+01    2.60801000E-01 
S    1    1.000000
   1.30290000E+01    6.16462000E-01 
S    1    1.000000
   1.82773000E+00    2.21006000E-01 
SP   3    1.000000
   2.09642000E+01    1.14660000E-01   4.02487000E-02 
   4.80331000E+00    9.19999000E-01   2.37594000E-01 
   1.45933000E+00   -3.03068000E-03   8.15854000E-01 
SP   1    1.000000
   4.83456000E-01    1.00000000E+00   1.00000000E+00 
SP   1    1.000000
   1.45585000E-01    1.00000000E+00   1.00000000E+00 
SP   1    1.000000
   4.38000000E-02    1.00000000E+00   1.00000000E+00 
SP   1    1.000000
   1.31927711E-02    1.00000000E+00   1.00000000E+00 
D    1    1.000000
   6.26000000E-01    1.00000000E+00 

8    0
S    3    1.000000
   3.38650000E+01    2.54938000E-02 
   5.09479000E+00    1.90373000E-01 
   1.15879000E+00    8.52161000E-01 
S    1    1.000000
   3.25840000E-01    1.00000000E+00 
S    1    1.000000
   1.02741000E-01    1.00000000E+00 
S    1    1.000000
   3.60000000E-02    1.00000000E+00 
P    1    1.000000
   7.50000000E-01    1.00000000E+00 

9    0
S    1    1.000000
   4.56324000E+03    1.96665000E-03 
S    1    1.000000
   6.82024000E+02    1.52306000E-02 
S    1    1.000000
   1.54973000E+02    7.61269000E-02 
S    1    1.000000
   4.44553000E+01    2.60801000E-01 
S    1    1.000000
   1.30290000E+01    6.16462000E-01 
S    1    1.000000
   1.82773000E+00    2.21006000E-01 
SP   3    1.000000
   2.09642000E+01    1.14660000E-01   4.02487000E-02 
   4.80331000E+00    9.19999000E-01   2.37594000E-01 
   1.45933000E+00   -3.03068000E-03   8.15854000E-01 
SP   1    1.000000
   4.83456000E-01    1.00000000E+00   1.00000000E+00 
SP   1    1.000000
   1.45585000E-01    1.00000000E+00   1.00000000E+00 
SP   1    1.000000
   4.38000000E-02    1.00000000E+00   1.00000000E+00 
SP   1    1.000000
   1.31927711E-02    1.00000000E+00   1.00000000E+00 
D    1    1.000000
   6.26000000E-01    1.00000000E+00 

10    0
S    3    1.000000
   3.38650000E+01    2.54938000E-02 
   5.09479000E+00    1.90373000E-01 
   1.15879000E+00    8.52161000E-01 
S    1    1.000000
   3.25840000E-01    1.00000000E+00 
S    1    1.000000
   1.02741000E-01    1.00000000E+00 
S    1    1.000000
   3.60000000E-02    1.00000000E+00 
P    1    1.000000
   7.50000000E-01    1.00000000E+00 

11    0
S    1    1.000000
   4.56324000E+03    1.96665000E-03 
S    1    1.000000
   6.82024000E+02    1.52306000E-02 
S    1    1.000000
   1.54973000E+02    7.61269000E-02 
S    1    1.000000
   4.44553000E+01    2.60801000E-01 
S    1    1.000000
   1.30290000E+01    6.16462000E-01 
S    1    1.000000
   1.82773000E+00    2.21006000E-01 
SP   3    1.000000
   2.09642000E+01    1.14660000E-01   4.02487000E-02 
   4.80331000E+00    9.19999000E-01   2.37594000E-01 
   1.45933000E+00   -3.03068000E-03   8.15854000E-01 
SP   1    1.000000
   4.83456000E-01    1.00000000E+00   1.00000000E+00 
SP   1    1.000000
   1.45585000E-01    1.00000000E+00   1.00000000E+00 
SP   1    1.000000
   4.38000000E-02    1.00000000E+00   1.00000000E+00 
SP   1    1.000000
   1.31927711E-02    1.00000000E+00   1.00000000E+00 
D    1    1.000000
   6.26000000E-01    1.00000000E+00 

12    0
S    3    1.000000
   3.38650000E+01    2.54938000E-02 
   5.09479000E+00    1.90373000E-01 
   1.15879000E+00    8.52161000E-01 
S    1    1.000000
   3.25840000E-01    1.00000000E+00 
S    1    1.000000
   1.02741000E-01    1.00000000E+00 
S    1    1.000000
   3.60000000E-02    1.00000000E+00 
P    1    1.000000
   7.50000000E-01    1.00000000E+00 

[MO]
Sym=X
Ene= -0.004685
Spin=Alpha
Occup=1
     1    2.406393214900e-04
     2    2.923034636251e-04
     3   -8.245132687614e-05
     4   -1.542985534627e-04
     5   -2.278018936265e-04
     6   -3.246788138812e-10
     7    3.465463451873e-16
     8    6.403336168871e-04
     9    4.957164603419e-03
    10    2.472873399593e-02
    11    8.490071542821e-02
    12    2.005797870754e-01
    13    7.328375400610e-02
    14    2.684520161817e-01
    15    4.009825546202e-06
    16   -3.485047428240e-10
    17    1.277682043689e-15
    18    1.053057091953e-03
    19   -1.724461207293e-04
    20   -3.711451723528e-09
    21   -2.225054041668e-15
    22    6.946118075265e-04
    23   -1.529465302580e-04
    24    2.463654339750e-09
    25    1.003988320567e-14
    26   -7.444972686161e-04
    27    1.394836846964e-04
    28   -2.548848818607e-09
    29   -7.762963938177e-14
    30   -4.285636514334e-05
    31    7.454055188668e-05
    32    2.943674687764e-10
    33    9.960521933492e-13
    34   -1.077808651344e-04
    35   -9.216820463715e-16
    36    1.366679423794e-16
    37   -1.303224216355e-04
    38    2.107800673700e-09
    39    3.201499833156e-04
    40    2.478452045212e-03
    41    1.236371724137e-02
    42    4.244812678829e-02
    43    1.002846238593e-01
    44    3.663995170066e-02
    45    1.342189505382e-01
    46    5.772046265060e-05
    47   -3.101364904015e-05
    48    1.243456573448e-15
    49    5.265130038936e-04
    50    4.880768624517e-04
    51   -3.813542571430e-04
    52    2.486745007286e-15
    53    3.472335239819e-04
    54   -3.914999651233e-04
    55    1.377743842288e-04
    56   -1.117489297779e-14
    57   -3.722413164845e-04
    58    3.957136211299e-04
    59   -1.479290572441e-04
    60    8.618106137199e-14
    61   -2.142796427805e-05
    62   -2.273841606258e-05
    63    5.616297830610e-05
    64   -1.012721609094e-12
    65   -5.388827956740e-05
    66   -9.944960731059e-17
    67    1.090284133792e-15
    68   -2.711011059583e-04
    69   -2.317646342617e-04
    70    1.203144492582e-04
    71    1.461418842934e-04
    72   -4.123553554545e-05
    73   -7.715092238258e-05
    74   -1.010208795820e-05
    75   -1.256840864199e-04
    76    7.834521597688e-17
    77   -3.201557454581e-04
    78   -2.478496653033e-03
    79   -1.236393976672e-02
    80   -4.244889077984e-02
    81   -1.002864288072e-01
    82   -3.664061121190e-02
    83   -1.342213662267e-01
    84    5.772011550037e-05
    85    3.101342158743e-05
    86    1.983047882445e-15
    87   -5.265225065118e-04
    88    4.880729010228e-04
    89    3.813537523203e-04
    90   -2.230937309090e-15
    91   -3.472397707605e-04
    92   -3.914985359826e-04
    93   -1.377719652636e-04
    94    1.396742999070e-14
    95    3.722481354297e-04
    96    3.957120396336e-04
    97    1.479267282025e-04
    98   -8.736946486226e-14
    99    2.142835530457e-05
   100   -2.273783420724e-05
   101   -5.616342203705e-05
   102    1.026417138616e-12
   103    5.388924775335e-05
   104    7.718814621917e-16
   105    6.738955040696e-16
   106    2.710986946180e-04
   107   -2.317645940043e-04
   108   -1.203166152420e-04
   109   -1.461445126321e-04
   110    4.123626370962e-05
   111    7.715229110600e-05
   112   -1.010339317858e-05
   113    1.256856998468e-04
   114   -3.628218781707e-16
   115   -6.403336197308e-04
   116   -4.957164625424e-03
   117   -2.472873410571e-02
   118   -8.490071580513e-02
   119   -2.005797879658e-01
   120   -7.328375432997e-02
   121   -2.684520173734e-01
   122    4.009825239770e-06
   123   -3.437666535902e-10
   124   -3.217687163554e-16
   125   -1.053057103062e-03
   126   -1.724461261650e-04
   127   -3.695773926259e-09
   128    3.020029760236e-15
   129   -6.946118049808e-04
   130   -1.529465281094e-04
   131    2.458538957797e-09
   132   -9.402018614836e-15
   133    7.444972624219e-04
   134    1.394836838044e-04
   135   -2.540364221652e-09
   136    7.685183502795e-14
   137    4.285636505823e-05
   138    7.454055194277e-05
   139    2.886927804893e-10
   140   -1.012836838177e-12
   141    1.077808658266e-04
   142   -2.185341475163e-16
   143    4.011703300414e-16
   144    1.303224240288e-04
   145   -2.099261248974e-09
   146   -2.406393230120e-04
   147   -2.923034665247e-04
   148    8.245132981743e-05
   149    1.542985527944e-04
   150   -2.278018956439e-04
   151   -3.235467548818e-10
   152   -5.638857957465e-16
   153   -3.201500112162e-04
   154   -2.478452261214e-03
   155   -1.236371831885e-02
   156   -4.244813048774e-02
   157   -1.002846325980e-01
   158   -3.663995489157e-02
   159   -1.342189622400e-01
   160    5.772046583663e-05
   161   -3.101364715985e-05
   162    1.423878629976e-15
   163   -5.265130436749e-04
   164    4.880768666724e-04
   165   -3.813542628456e-04
   166   -2.031030831052e-15
   167   -3.472335537093e-04
   168   -3.914999728135e-04
   169    1.377743754348e-04
   170    5.659325743302e-15
   171    3.722413544388e-04
   172    3.957136264334e-04
   173   -1.479290494624e-04
   174   -6.814262204661e-14
   175    2.142796747675e-05
   176   -2.273841526154e-05
   177    5.616298509932e-05
   178    9.994160532304e-13
   179    5.388828354660e-05
   180   -1.115289925035e-16
   181    4.027881489549e-16
   182    2.711011082756e-04
   183    2.317646372282e-04
   184   -1.203144591859e-04
   185   -1.461418964325e-04
   186    4.123553659419e-05
   187    7.715092700029e-05
   188   -1.010209176668e-05
   189   -1.256840939343e-04
   190    4.546689343432e-16
   191    3.201557599025e-04
   192    2.478496764848e-03
   193    1.236394032449e-02
   194    4.244889269495e-02
   195    1.002864333309e-01
   196    3.664061286587e-02
   197    1.342213722853e-01
   198    5.772011917941e-05
   199    3.101342053295e-05
   200   -2.006498506171e-16
   201    5.265225152024e-04
   202    4.880729127682e-04
   203    3.813537508055e-04
   204    1.667340697244e-15
   205    3.472397957159e-04
   206   -3.914985445673e-04
   207   -1.377719568195e-04
   208   -9.473388219126e-15
   209   -3.722481728514e-04
   210    3.957120449866e-04
   211    1.479267224342e-04
   212    7.109784774583e-14
   213   -2.142835764115e-05
   214   -2.273783434699e-05
   215   -5.616342801633e-05
   216   -9.965707775001e-13
   217   -5.388924935202e-05
   218   -1.221630354129e-16
   219   -7.506331431221e-16
   220   -2.710987005858e-04
   221    2.317645938492e-04
   222    1.203166195239e-04
   223    1.461445161047e-04
   224   -4.123625941135e-05
   225   -7.715229492611e-05
   226   -1.010339377883e-05
   227    1.256857022266e-04
   228   -4.149047666237e-16
Sym=X
Ene= -0.004685
Spin=Alpha
Occup=1
     1    2.796231317250e-10
     2   -5.162364456030e-10
     3   -2.881990825357e-09
     4   -1.358139380174e-09
     5   -4.123842157723e-10
     6    6.246146465398e-05
     7   -9.227278274744e-16
     8    3.639360829919e-11
     9    2.807549954055e-10
    10    1.406615869119e-09
    11    4.798964664653e-09
    12    1.155813673587e-08
    13    4.235576514532e-09
    14    1.434485704279e-08
    15   -7.793509540698e-10
    16    7.562596368291e-05
    17   -6.093032455841e-17
    18    2.981203713974e-09
    19   -1.304182633241e-09
    20    7.082496766538e-04
    21    2.710481764773e-16
    22   -1.299205366308e-08
    23    8.484775228929e-09
    24   -4.710426453855e-04
    25   -2.144984597862e-16
    26   -2.880967995804e-09
    27    1.985007918827e-09
    28    4.811188329193e-04
    29   -1.807367309945e-14
    30   -2.170575454014e-10
    31    2.511916138285e-10
    32   -5.516399023896e-05
    33    9.840092211097e-14
    34   -1.654281067035e-10
    35    8.772426286606e-16
    36   -4.781619578807e-16
    37   -1.369518503785e-09
    38   -4.049092442435e-04
    39    5.545421439657e-04
    40    4.293006979113e-03
    41    2.141559463250e-02
    42    7.352577389671e-02
    43    1.737062405798e-01
    44    6.346524529289e-02
    45    2.324849919986e-01
    46   -3.101086342682e-05
    47    2.191283649069e-05
    48   -5.751822095131e-16
    49    9.119732775562e-04
    50   -3.813503270259e-04
    51    4.772519163537e-05
    52    1.490773845179e-15
    53    6.015299605964e-04
    54    1.377442103355e-04
    55   -2.324584660677e-04
    56   -2.862819206977e-15
    57   -6.447537877039e-04
    58   -1.479293782070e-04
    59    2.248933798017e-04
    60    1.581529266696e-14
    61   -3.711480087614e-05
    62    5.616351347127e-05
    63    4.211455595335e-05
    64   -9.965356667747e-14
    65   -9.334069348594e-05
    66   -5.570262382505e-16
    67    3.566738868082e-16
    68    2.317612122175e-04
    69    3.483388259932e-06
    70    2.083990136356e-04
    71    2.531401780890e-04
    72   -7.140876143781e-05
    73   -1.336277439513e-04
    74   -1.256872387516e-04
    75   -1.552357901557e-04
    76   -3.852873540852e-16
    77    5.545321678916e-04
    78    4.292929746979e-03
    79    2.141520937348e-02
    80    7.352445113154e-02
    81    1.737031159655e-01
    82    6.346410382538e-02
    83    2.324808077823e-01
    84    3.101231179761e-05
    85    2.191177010439e-05
    86   -5.649371672390e-16
    87    9.119627154744e-04
    88    3.813557379887e-04
    89    4.772848148437e-05
    90    7.958847284336e-16
    91    6.014931235873e-04
    92   -1.377575336363e-04
    93   -2.324438179731e-04
    94   -3.422850465995e-16
    95   -6.447481394816e-04
    96    1.479322038171e-04
    97    2.248970127585e-04
    98   -1.782971352332e-14
    99   -3.711457036060e-05
   100   -5.616360959862e-05
   101    4.211373834547e-05
   102    8.130663976180e-14
   103   -9.333932972712e-05
   104   -6.215782550234e-16
   105    4.052026362961e-16
   106    2.317647010064e-04
   107   -3.484613020779e-06
   108    2.083957946047e-04
   109    2.531345419431e-04
   110   -7.141318973690e-05
   111   -1.336280187179e-04
   112    1.256863473772e-04
   113   -1.552331224577e-04
   114   -4.787301085326e-16
   115    4.085040276256e-11
   116    3.172497563136e-10
   117    1.576431812474e-09
   118    5.443021078826e-09
   119    1.263535900775e-08
   120    4.588747502787e-09
   121    1.804743044759e-08
   122   -7.833373506093e-10
   123    7.562596312139e-05
   124   -4.073313105974e-16
   125   -2.816335270950e-09
   126   -1.256603202288e-09
   127    7.082496747559e-04
   128    4.068673216736e-16
   129    1.303068197326e-08
   130    8.490544079955e-09
   131   -4.710426452001e-04
   132   -3.473001311193e-15
   133    2.852559873172e-09
   134    1.970964464649e-09
   135    4.811188462453e-04
   136    2.246025884219e-14
   137    2.110340274933e-10
   138    2.414841404431e-10
   139   -5.516398998185e-05
   140   -5.962384392661e-14
   141    1.521979803223e-10
   142   -4.549397385569e-16
   143    3.264682640058e-16
   144    1.348020628626e-09
   145    4.049092432224e-04
   146   -2.481893305239e-10
   147    5.626629907386e-10
   148    2.856918260981e-09
   149    1.351797526587e-09
   150   -3.800056791698e-10
   151    6.246146453465e-05
   152   -1.045019366318e-15
   153   -5.545421007224e-04
   154   -4.293006644330e-03
   155   -2.141559296248e-02
   156   -7.352576816294e-02
   157   -1.737062270355e-01
   158   -6.346524035877e-02
   159   -2.324849738669e-01
   160   -3.101086674905e-05
   161    2.191283936300e-05
   162    1.496355737980e-15
   163   -9.119731516335e-04
   164   -3.813503141063e-04
   165    4.772524309676e-05
   166   -4.378939916007e-15
   167   -6.015299659490e-04
   168    1.377442086055e-04
   169   -2.324584796363e-04
   170    7.171231802811e-15
   171    6.447538234664e-04
   172   -1.479293954718e-04
   173    2.248933898925e-04
   174   -2.853010173612e-14
   175    3.711479962011e-05
   176    5.616351606778e-05
   177    4.211455281254e-05
   178    6.157360635279e-14
   179    9.334068475493e-05
   180    6.565913752218e-16
   181    2.473882263363e-17
   182   -2.317612076171e-04
   183   -3.483411988155e-06
   184   -2.083989936253e-04
   185   -2.531401441236e-04
   186    7.140873367395e-05
   187    1.336277441042e-04
   188   -1.256872277969e-04
   189   -1.552357690791e-04
   190   -5.802358055596e-16
   191   -5.545321297232e-04
   192   -4.292929451494e-03
   193   -2.141520789948e-02
   194   -7.352444607081e-02
   195   -1.737031040109e-01
   196   -6.346409947207e-02
   197   -2.324807917797e-01
   198    3.101231427300e-05
   199    2.191177330286e-05
   200   -4.538430715559e-16
   201   -9.119625953403e-04
   202    3.813557231174e-04
   203    4.772853245081e-05
   204    5.400249466262e-16
   205   -6.014931355221e-04
   206   -1.377575291974e-04
   207   -2.324438331125e-04
   208   -6.675322788665e-15
   209    6.447481885253e-04
   210    1.479321936442e-04
   211    2.248970132326e-04
   212    2.517782057270e-14
   213    3.711457029423e-05
   214   -5.616361291000e-05
   215    4.211373531614e-05
   216   -7.826159095154e-14
   217    9.333932166392e-05
   218    1.204231495852e-15
   219   -7.240244445463e-16
   220   -2.317646954162e-04
   221    3.484636417286e-06
   222   -2.083957762739e-04
   223   -2.531345099201e-04
   224    7.141316202582e-05
   225    1.336280222363e-04
   226    1.256863369283e-04
   227   -1.552331025720e-04
   228   -8.056626890893e-16
Sym=X
Ene= -0.005242
Spin=Alpha
Occup=1
     1    1.991002317737e-04
     2    3.206265972548e-04
     3   -2.295540152423e-04
     4   -7.830202854023e-06
     5   -2.240290678153e-04
     6    2.162544313837e-10
     7    2.129137432797e-16
     8    4.527195073185e-04
     9    3.504805924919e-03
    10    1.748317110562e-02
    11    6.002624373216e-02
    12    1.417940091751e-01
    13    5.167987691992e-02
    14    1.898295459200e-01
    15    4.660198210851e-06
    16    9.240393762281e-10
    17    1.108075628252e-15
    18    1.172137111149e-03
    19   -4.283782465114e-04
    20    3.037569470503e-09
    21   -3.072478542542e-15
    22    6.073413437829e-05
    23    6.317502867195e-05
    24   -9.848376918561e-10
    25    6.126421478645e-15
    26    1.610549059592e-04
    27    2.408034834744e-05
    28    1.152814355990e-09
    29   -1.941364075235e-14
    30   -2.094062304095e-05
    31    3.460433084032e-05
    32   -1.004675512360e-09
    33   -1.107740379778e-14
    34   -8.568047861795e-05
    35   -7.058251615035e-16
    36   -1.019675901041e-15
    37   -1.922942273944e-04
    38   -1.649695365121e-09
    39    4.527061024786e-04
    40    3.504702147947e-03
    41    1.748265343449e-02
    42    6.002446633092e-02
    43    1.417898106773e-01
    44    5.167834302372e-02
    45    1.898239235941e-01
    46    2.331267600769e-06
    47    4.033147855147e-06
    48    7.686222743900e-16
    49    1.172121673019e-03
    50   -2.141828603038e-04
    51   -3.709918519529e-04
    52    7.667008406031e-16
    53    6.071707626465e-05
    54    3.158891348215e-05
    55    5.471895801945e-05
    56   -2.788863240601e-15
    57    1.610726300697e-04
    58    1.204153969712e-05
    59    2.085034753249e-05
    60    1.046600191785e-14
    61   -2.093944249861e-05
    62    1.729830758632e-05
    63    2.996684728495e-05
    64    1.806896303693e-14
    65   -8.567873685753e-05
    66    9.835000420832e-16
    67   -6.748670985057e-16
    68    9.614359980901e-05
    69   -1.665344103967e-04
    70    1.990957416847e-04
    71    3.206217255535e-04
    72   -2.295554171062e-04
    73   -7.828951569477e-06
    74   -1.120123407569e-04
    75   -1.940122274580e-04
    76   -1.199460114767e-16
    77    4.526978026158e-04
    78    3.504637892430e-03
    79    1.748233290831e-02
    80    6.002336581725e-02
    81    1.417872110967e-01
    82    5.167739342419e-02
    83    1.898204423682e-01
    84   -2.329868654252e-06
    85    4.032583411725e-06
    86    2.029353127169e-16
    87    1.172112169443e-03
    88    2.141859528409e-04
    89   -3.709910358862e-04
    90   -2.325866465498e-16
    91    6.070646436240e-05
    92   -3.159207370058e-05
    93    5.472239734981e-05
    94   -1.292583076013e-15
    95    1.610846258199e-04
    96   -1.203942069138e-05
    97    2.084904442365e-05
    98   -1.090055854103e-15
    99   -2.093860906255e-05
   100   -1.729820582327e-05
   101    2.996465421183e-05
   102   -2.689791122738e-14
   103   -8.567764592731e-05
   104    4.165788201974e-16
   105    6.958070191999e-16
   106    9.614522036732e-05
   107    1.665338621942e-04
   108    1.990929558112e-04
   109    3.206186551855e-04
   110   -2.295561648097e-04
   111   -7.827914224492e-06
   112    1.120114737019e-04
   113   -1.940102845708e-04
   114   -5.592837046039e-16
   115    4.527194996052e-04
   116    3.504805865207e-03
   117    1.748317080775e-02
   118    6.002624270950e-02
   119    1.417940067590e-01
   120    5.167987603720e-02
   121    1.898295426864e-01
   122   -4.660198161179e-06
   123   -9.329782276667e-10
   124   -6.800173019845e-16
   125    1.172137098422e-03
   126    4.283782444997e-04
   127   -3.120238371787e-09
   128    1.540758037326e-15
   129    6.073412720969e-05
   130   -6.317502983158e-05
   131    1.039996875512e-09
   132    4.686496156923e-16
   133    1.610549207588e-04
   134   -2.408034810519e-05
   135   -1.211325445744e-09
   136   -1.773141187467e-16
   137   -2.094062236229e-05
   138   -3.460433022579e-05
   139    1.010957928524e-09
   140    3.488858382843e-14
   141   -8.568047733151e-05
   142    4.696638553419e-16
   143    1.623099714230e-16
   144   -1.922942258641e-04
   145   -1.696993807654e-09
   146    1.991002288545e-04
   147    3.206265939389e-04
   148   -2.295540145717e-04
   149   -7.830202625274e-06
   150    2.240290650975e-04
   151   -2.235616886899e-10
   152    1.605136345840e-16
   153    4.527061634464e-04
   154    3.504702619935e-03
   155    1.748265578898e-02
   156    6.002447441455e-02
   157    1.417898297750e-01
   158    5.167835000116e-02
   159    1.898239491542e-01
   160   -2.331263239496e-06
   161   -4.033150819061e-06
   162   -1.742128992606e-15
   163    1.172121773249e-03
   164    2.141829106568e-04
   165    3.709918417682e-04
   166    1.696027837207e-15
   167    6.071714140285e-05
   168   -3.158893474118e-05
   169   -5.471892978862e-05
   170   -1.642140995545e-15
   171    1.610725581757e-04
   172   -1.204151426851e-05
   173   -2.085037723966e-05
   174   -6.397637824595e-15
   175   -2.093944658897e-05
   176   -1.729831412794e-05
   177   -2.996685143037e-05
   178   -2.590068825663e-14
   179   -8.567874711944e-05
   180    5.089492866568e-16
   181   -4.253647838577e-16
   182    9.614363012449e-05
   183   -1.665344071870e-04
   184    1.990957646119e-04
   185    3.206217531770e-04
   186   -2.295554250173e-04
   187   -7.828965836597e-06
   188    1.120123553137e-04
   189    1.940122440613e-04
   190    1.009970977874e-15
   191    4.526978712120e-04
   192    3.504638423474e-03
   193    1.748233555741e-02
   194    6.002337491236e-02
   195    1.417872325841e-01
   196    5.167740127469e-02
   197    1.898204711266e-01
   198    2.329865685081e-06
   199   -4.032585624939e-06
   200    8.724920769867e-16
   201    1.172112282150e-03
   202   -2.141859915222e-04
   203    3.709910349452e-04
   204    1.035226145135e-16
   205    6.070654004100e-05
   206    3.159208473010e-05
   207   -5.472237118931e-05
   208   -3.571650676984e-15
   209    1.610845395542e-04
   210    1.203940933833e-05
   211   -2.084906802231e-05
   212    1.696921693231e-14
   213   -2.093861379940e-05
   214    1.729821208289e-05
   215   -2.996465976434e-05
   216    9.643972342283e-15
   217   -8.567765750296e-05
   218   -8.310668419490e-16
   219   -2.230483881099e-16
   220    9.614524420691e-05
   221    1.665338646051e-04
   222    1.990929815943e-04
   223    3.206186865732e-04
   224   -2.295561732899e-04
   225   -7.827930727681e-06
   226   -1.120114885144e-04
   227    1.940103042198e-04
   228   -4.216148695100e-16
Sym=X
Ene= -0.075224
Spin=Alpha
Occup=1
     1   -1.342634449838e-04
     2   -2.798335436427e-04
     3   -3.316238044312e-04
     4   -7.442914115542e-05
     5    1.069727742984e-04
     6   -4.582130090956e-10
     7   -3.907802478416e-16
     8   -4.529850632066e-04
     9   -3.506935648962e-03
    10   -1.749345442967e-02
    11   -6.006412877926e-02
    12   -1.418724395136e-01
    13   -5.183123752576e-02
    14   -1.900336660197e-01
    15   -1.093637642215e-04
    16   -5.831065477405e-10
    17   -1.247963337457e-15
    18   -3.504298639543e-04
    19   -5.227917467302e-05
    20   -5.152142167154e-09
    21    2.321867633660e-15
    22   -2.260560254774e-03
    23    1.262535101855e-03
    24    3.435021621342e-09
    25   -2.049803725566e-16
    26    1.260507584242e-04
    27    1.691507372019e-04
    28   -3.497176880231e-09
    29    2.713029381054e-14
    30    7.143460245223e-07
    31   -1.877405724302e-05
    32    3.963271314577e-10
    33   -7.874881018318e-13
    34    5.478771791126e-05
    35   -1.753637296986e-16
    36    2.843348517600e-16
    37   -9.274719203848e-05
    38    2.959015539679e-09
    39    4.530007213225e-04
    40    3.507056866793e-03
    41    1.749405912301e-02
    42    6.006620486172e-02
    43    1.418773443036e-01
    44    5.183302945968e-02
    45    1.900402305312e-01
    46    5.468342118495e-05
    47    9.471117324307e-05
    48    2.352554200545e-15
    49    3.504555241025e-04
    50    2.615054169303e-05
    51    4.526375967758e-05
    52   -4.752759088440e-15
    53    2.260577299996e-03
    54   -6.312781115742e-04
    55   -1.093385591575e-03
    56    5.256329563949e-15
    57   -1.260685067539e-04
    58   -8.456480843331e-05
    59   -1.464908241115e-04
    60   -3.634642102636e-14
    61   -7.153877212065e-07