[Molden Format]
[Atoms] (Angs)
  H      1    1      2.47503475      0.00000000     -0.00000000
  C      2    6      1.39359294      0.00000000     -0.00000000
  C      3    6      0.69679647      1.20688689      0.00000000
  H      4    1      1.23751738      2.14344297      0.00000000
  C      5    6     -0.69679647      1.20688689      0.00000000
  H      6    1     -1.23751738      2.14344297      0.00000000
  C      7    6     -1.39359294     -0.00000000      0.00000000
  H      8    1     -2.47503475     -0.00000000      0.00000000
  C      9    6     -0.69679647     -1.20688689     -0.00000000
  H     10    1     -1.23751738     -2.14344297     -0.00000000
  C     11    6      0.69679647     -1.20688689     -0.00000000
  H     12    1      1.23751738     -2.14344297     -0.00000000
[GTO]
1    0
S    3    1.000000
   3.38650000E+01    2.54938000E-02 
   5.09479000E+00    1.90373000E-01 
   1.15879000E+00    8.52161000E-01 
S    1    1.000000
   3.25840000E-01    1.00000000E+00 
S    1    1.000000
   1.02741000E-01    1.00000000E+00 
S    1    1.000000
   3.60000000E-02    1.00000000E+00 
P    1    1.000000
   7.50000000E-01    1.00000000E+00 

2    0
S    1    1.000000
   4.56324000E+03    1.96665000E-03 
S    1    1.000000
   6.82024000E+02    1.52306000E-02 
S    1    1.000000
   1.54973000E+02    7.61269000E-02 
S    1    1.000000
   4.44553000E+01    2.60801000E-01 
S    1    1.000000
   1.30290000E+01    6.16462000E-01 
S    1    1.000000
   1.82773000E+00    2.21006000E-01 
SP   3    1.000000
   2.09642000E+01    1.14660000E-01   4.02487000E-02 
   4.80331000E+00    9.19999000E-01   2.37594000E-01 
   1.45933000E+00   -3.03068000E-03   8.15854000E-01 
SP   1    1.000000
   4.83456000E-01    1.00000000E+00   1.00000000E+00 
SP   1    1.000000
   1.45585000E-01    1.00000000E+00   1.00000000E+00 
SP   1    1.000000
   4.38000000E-02    1.00000000E+00   1.00000000E+00 
SP   1    1.000000
   1.31927711E-02    1.00000000E+00   1.00000000E+00 
D    1    1.000000
   6.26000000E-01    1.00000000E+00 

3    0
S    1    1.000000
   4.56324000E+03    1.96665000E-03 
S    1    1.000000
   6.82024000E+02    1.52306000E-02 
S    1    1.000000
   1.54973000E+02    7.61269000E-02 
S    1    1.000000
   4.44553000E+01    2.60801000E-01 
S    1    1.000000
   1.30290000E+01    6.16462000E-01 
S    1    1.000000
   1.82773000E+00    2.21006000E-01 
SP   3    1.000000
   2.09642000E+01    1.14660000E-01   4.02487000E-02 
   4.80331000E+00    9.19999000E-01   2.37594000E-01 
   1.45933000E+00   -3.03068000E-03   8.15854000E-01 
SP   1    1.000000
   4.83456000E-01    1.00000000E+00   1.00000000E+00 
SP   1    1.000000
   1.45585000E-01    1.00000000E+00   1.00000000E+00 
SP   1    1.000000
   4.38000000E-02    1.00000000E+00   1.00000000E+00 
SP   1    1.000000
   1.31927711E-02    1.00000000E+00   1.00000000E+00 
D    1    1.000000
   6.26000000E-01    1.00000000E+00 

4    0
S    3    1.000000
   3.38650000E+01    2.54938000E-02 
   5.09479000E+00    1.90373000E-01 
   1.15879000E+00    8.52161000E-01 
S    1    1.000000
   3.25840000E-01    1.00000000E+00 
S    1    1.000000
   1.02741000E-01    1.00000000E+00 
S    1    1.000000
   3.60000000E-02    1.00000000E+00 
P    1    1.000000
   7.50000000E-01    1.00000000E+00 

5    0
S    1    1.000000
   4.56324000E+03    1.96665000E-03 
S    1    1.000000
   6.82024000E+02    1.52306000E-02 
S    1    1.000000
   1.54973000E+02    7.61269000E-02 
S    1    1.000000
   4.44553000E+01    2.60801000E-01 
S    1    1.000000
   1.30290000E+01    6.16462000E-01 
S    1    1.000000
   1.82773000E+00    2.21006000E-01 
SP   3    1.000000
   2.09642000E+01    1.14660000E-01   4.02487000E-02 
   4.80331000E+00    9.19999000E-01   2.37594000E-01 
   1.45933000E+00   -3.03068000E-03   8.15854000E-01 
SP   1    1.000000
   4.83456000E-01    1.00000000E+00   1.00000000E+00 
SP   1    1.000000
   1.45585000E-01    1.00000000E+00   1.00000000E+00 
SP   1    1.000000
   4.38000000E-02    1.00000000E+00   1.00000000E+00 
SP   1    1.000000
   1.31927711E-02    1.00000000E+00   1.00000000E+00 
D    1    1.000000
   6.26000000E-01    1.00000000E+00 

6    0
S    3    1.000000
   3.38650000E+01    2.54938000E-02 
   5.09479000E+00    1.90373000E-01 
   1.15879000E+00    8.52161000E-01 
S    1    1.000000
   3.25840000E-01    1.00000000E+00 
S    1    1.000000
   1.02741000E-01    1.00000000E+00 
S    1    1.000000
   3.60000000E-02    1.00000000E+00 
P    1    1.000000
   7.50000000E-01    1.00000000E+00 

7    0
S    1    1.000000
   4.56324000E+03    1.96665000E-03 
S    1    1.000000
   6.82024000E+02    1.52306000E-02 
S    1    1.000000
   1.54973000E+02    7.61269000E-02 
S    1    1.000000
   4.44553000E+01    2.60801000E-01 
S    1    1.000000
   1.30290000E+01    6.16462000E-01 
S    1    1.000000
   1.82773000E+00    2.21006000E-01 
SP   3    1.000000
   2.09642000E+01    1.14660000E-01   4.02487000E-02 
   4.80331000E+00    9.19999000E-01   2.37594000E-01 
   1.45933000E+00   -3.03068000E-03   8.15854000E-01 
SP   1    1.000000
   4.83456000E-01    1.00000000E+00   1.00000000E+00 
SP   1    1.000000
   1.45585000E-01    1.00000000E+00   1.00000000E+00 
SP   1    1.000000
   4.38000000E-02    1.00000000E+00   1.00000000E+00 
SP   1    1.000000
   1.31927711E-02    1.00000000E+00   1.00000000E+00 
D    1    1.000000
   6.26000000E-01    1.00000000E+00 

8    0
S    3    1.000000
   3.38650000E+01    2.54938000E-02 
   5.09479000E+00    1.90373000E-01 
   1.15879000E+00    8.52161000E-01 
S    1    1.000000
   3.25840000E-01    1.00000000E+00 
S    1    1.000000
   1.02741000E-01    1.00000000E+00 
S    1    1.000000
   3.60000000E-02    1.00000000E+00 
P    1    1.000000
   7.50000000E-01    1.00000000E+00 

9    0
S    1    1.000000
   4.56324000E+03    1.96665000E-03 
S    1    1.000000
   6.82024000E+02    1.52306000E-02 
S    1    1.000000
   1.54973000E+02    7.61269000E-02 
S    1    1.000000
   4.44553000E+01    2.60801000E-01 
S    1    1.000000
   1.30290000E+01    6.16462000E-01 
S    1    1.000000
   1.82773000E+00    2.21006000E-01 
SP   3    1.000000
   2.09642000E+01    1.14660000E-01   4.02487000E-02 
   4.80331000E+00    9.19999000E-01   2.37594000E-01 
   1.45933000E+00   -3.03068000E-03   8.15854000E-01 
SP   1    1.000000
   4.83456000E-01    1.00000000E+00   1.00000000E+00 
SP   1    1.000000
   1.45585000E-01    1.00000000E+00   1.00000000E+00 
SP   1    1.000000
   4.38000000E-02    1.00000000E+00   1.00000000E+00 
SP   1    1.000000
   1.31927711E-02    1.00000000E+00   1.00000000E+00 
D    1    1.000000
   6.26000000E-01    1.00000000E+00 

10    0
S    3    1.000000
   3.38650000E+01    2.54938000E-02 
   5.09479000E+00    1.90373000E-01 
   1.15879000E+00    8.52161000E-01 
S    1    1.000000
   3.25840000E-01    1.00000000E+00 
S    1    1.000000
   1.02741000E-01    1.00000000E+00 
S    1    1.000000
   3.60000000E-02    1.00000000E+00 
P    1    1.000000
   7.50000000E-01    1.00000000E+00 

11    0
S    1    1.000000
   4.56324000E+03    1.96665000E-03 
S    1    1.000000
   6.82024000E+02    1.52306000E-02 
S    1    1.000000
   1.54973000E+02    7.61269000E-02 
S    1    1.000000
   4.44553000E+01    2.60801000E-01 
S    1    1.000000
   1.30290000E+01    6.16462000E-01 
S    1    1.000000
   1.82773000E+00    2.21006000E-01 
SP   3    1.000000
   2.09642000E+01    1.14660000E-01   4.02487000E-02 
   4.80331000E+00    9.19999000E-01   2.37594000E-01 
   1.45933000E+00   -3.03068000E-03   8.15854000E-01 
SP   1    1.000000
   4.83456000E-01    1.00000000E+00   1.00000000E+00 
SP   1    1.000000
   1.45585000E-01    1.00000000E+00   1.00000000E+00 
SP   1    1.000000
   4.38000000E-02    1.00000000E+00   1.00000000E+00 
SP   1    1.000000
   1.31927711E-02    1.00000000E+00   1.00000000E+00 
D    1    1.000000
   6.26000000E-01    1.00000000E+00 

12    0
S    3    1.000000
   3.38650000E+01    2.54938000E-02 
   5.09479000E+00    1.90373000E-01 
   1.15879000E+00    8.52161000E-01 
S    1    1.000000
   3.25840000E-01    1.00000000E+00 
S    1    1.000000
   1.02741000E-01    1.00000000E+00 
S    1    1.000000
   3.60000000E-02    1.00000000E+00 
P    1    1.000000
   7.50000000E-01    1.00000000E+00 

[MO]
Sym=X
Ene= -0.004860
Spin=Alpha
Occup=1
     1   -4.809782434606e-05
     2    9.681984464474e-06
     3   -1.871731261291e-04
     4    5.519395203255e-05
     5   -8.265869827028e-06
     6    2.556555059643e-10
     7   -9.313404807982e-17
     8   -2.291187165846e-04
     9   -1.773803763819e-03
    10   -8.848196174349e-03
    11   -3.038079177688e-02
    12   -7.176237380053e-02
    13   -2.628995729348e-02
    14   -9.613197415628e-02
    15   -6.860191589461e-05
    16    1.029702467540e-09
    17   -1.313746375614e-15
    18    1.360310790331e-04
    19   -3.147714756538e-04
    20    3.631707984509e-09
    21    4.468842697186e-16
    22   -6.086582542051e-04
    23    3.161194488646e-04
    24   -1.203527251140e-09
    25   -2.506574947333e-15
    26    8.131607658445e-04
    27   -1.108124215295e-04
    28    1.446369441788e-09
    29    1.929677384976e-15
    30    3.633633020323e-05
    31   -9.858456425788e-05
    32   -1.190902433170e-09
    33    2.000246445311e-13
    34    1.389747078132e-05
    35   -7.237995581897e-16
    36   -5.969452043837e-16
    37   -1.385855832394e-04
    38   -1.955628706586e-09
    39    5.304308157841e-04
    40    4.106442291448e-03
    41    2.048426720177e-02
    42    7.033094330347e-02
    43    1.661342029504e-01
    44    6.061849068957e-02
    45    2.224447986005e-01
    46   -5.179312238672e-05
    47    7.445254590918e-05
    48    1.777099431706e-15
    49    1.008726591497e-03
    50   -3.636166214072e-04
    51   -6.272758800731e-05
    52   -2.997179065813e-15
    53    3.601132807615e-04
    54    3.090100782462e-05
    55   -1.333367945953e-04
    56    2.521333645883e-15
    57   -2.586245383635e-04
    58   -5.496099143948e-05
    59    1.212509073394e-04
    60    2.463415137909e-16
    61   -3.740415591371e-05
    62    1.213487168326e-04
    63    2.356144159554e-05
    64   -2.224275974268e-13
    65   -8.565580169179e-05
    66    8.141387569841e-16
    67   -3.120924651058e-16
    68    1.864176017094e-04
    69   -1.633218331808e-05
    70    2.069444677185e-04
    71    2.896910173486e-04
    72   -1.172871057181e-04
    73   -3.478945397579e-05
    74   -1.182769684806e-04
    75   -1.645734323719e-04
    76   -2.208030714582e-16
    77    5.304210893633e-04
    78    4.106366991879e-03
    79    2.048389158444e-02
    80    7.032965363667e-02
    81    1.661311565602e-01
    82    6.061737786888e-02
    83    2.224407190338e-01
    84    5.179476378899e-05
    85    7.445188581255e-05
    86   -8.815811558799e-16
    87    1.008715466490e-03
    88    3.636202273507e-04
    89   -6.272665253119e-05
    90   -1.256621033331e-15
    91    3.601008519054e-04
    92   -3.090467657608e-05
    93   -1.333327633017e-04
    94    8.956839546593e-16
    95   -2.586106002347e-04
    96    5.496333303413e-05
    97    1.212493547866e-04
    98   -8.589711758183e-15
    99   -3.740319099262e-05
   100   -1.213486008484e-04
   101    2.355884785413e-05
   102    2.470819951928e-13
   103   -8.565452839491e-05
   104    3.011512331303e-16
   105    2.279111561980e-16
   106    1.864194949532e-04
   107    1.633155217382e-05
   108    2.069412035608e-04
   109    2.896874248586e-04
   110   -1.172879802058e-04
   111   -3.478825257763e-05
   112    1.182759530017e-04
   113   -1.645711562033e-04
   114   -6.208323410009e-16
   115   -2.291187192961e-04
   116   -1.773803784803e-03
   117   -8.848196279047e-03
   118   -3.038079213629e-02
   119   -7.176237464993e-02
   120   -2.628995760384e-02
   121   -9.613197529172e-02
   122    6.860191495897e-05
   123   -1.032780280058e-09
   124   -9.393805053317e-16
   125    1.360310710099e-04
   126    3.147714734044e-04
   127   -3.661078955219e-09
   128    5.224949449516e-16
   129   -6.086582410369e-04
   130   -3.161194390281e-04
   131    1.223108090342e-09
   132    3.097601457132e-16
   133    8.131607774071e-04
   134    1.108124230812e-04
   135   -1.467053447910e-09
   136    8.115799656932e-16
   137    3.633633075678e-05
   138    9.858456451497e-05
   139    1.193161093098e-09
   140   -2.310780161289e-13
   141    1.389747143350e-05
   142    1.395326520456e-16
   143   -1.477175492236e-15
   144   -1.385855810528e-04
   145   -1.972409235724e-09
   146   -4.809782570941e-05
   147    9.681984031275e-06
   148   -1.871731227503e-04
   149    5.519395276846e-05
   150    8.265868399532e-06
   151   -2.582484733841e-10
   152    3.289871304761e-16
   153    5.304308313659e-04
   154    4.106442412079e-03
   155    2.048426780353e-02
   156    7.033094536945e-02
   157    1.661342078316e-01
   158    6.061849247286e-02
   159    2.224448051321e-01
   160    5.179312482102e-05
   161   -7.445254633929e-05
   162   -1.442018711535e-15
   163    1.008726620558e-03
   164    3.636166425906e-04
   165    6.272758241566e-05
   166    2.900581820212e-15
   167    3.601132815805e-04
   168   -3.090102348382e-05
   169    1.333367957757e-04
   170   -5.517618487920e-15
   171   -2.586245591627e-04
   172    5.496100326001e-05
   173   -1.212509205105e-04
   174    6.483399211265e-15
   175   -3.740415720457e-05
   176   -1.213487191052e-04
   177   -2.356144259171e-05
   178    2.082030226072e-13
   179   -8.565580451484e-05
   180   -2.377263644110e-16
   181   -1.576958935778e-16
   182    1.864176146024e-04
   183   -1.633218144018e-05
   184    2.069444738955e-04
   185    2.896910237479e-04
   186   -1.172871111955e-04
   187   -3.478945893249e-05
   188    1.182769731125e-04
   189    1.645734366528e-04
   190    1.080363611452e-15
   191    5.304211197861e-04
   192    4.106367227394e-03
   193    2.048389275930e-02
   194    7.032965767033e-02
   195    1.661311660896e-01
   196    6.061738135032e-02
   197    2.224407317892e-01
   198   -5.179476402147e-05
   199   -7.445188727643e-05
   200    5.060944454439e-16
   201    1.008715512889e-03
   202   -3.636202377649e-04
   203    6.272665420506e-05
   204   -3.025946199675e-16
   205    3.601009010884e-04
   206    3.090467234865e-05
   207    1.333327814120e-04
   208    3.137425332963e-15
   209   -2.586106352390e-04
   210   -5.496333400768e-05
   211   -1.212493607658e-04
   212   -2.403516100910e-15
   213   -3.740319281032e-05
   214    1.213486031602e-04
   215   -2.355885034604e-05
   216   -2.004141052289e-13
   217   -8.565453332838e-05
   218   -1.756084273386e-15
   219   -1.993863188659e-16
   220    1.864195012998e-04
   221    1.633155377202e-05
   222    2.069412146689e-04
   223    2.896874394525e-04
   224   -1.172879806505e-04
   225   -3.478825886890e-05
   226   -1.182759588006e-04
   227    1.645711648020e-04
   228   -4.493950530858e-16
Sym=X
Ene= -0.011922
Spin=Alpha
Occup=1
     1    2.796552492029e-10
     2   -5.161974440920e-10
     3   -2.882001945268e-09
     4   -1.358160231191e-09
     5   -4.124146192449e-10
     6    6.246146465398e-05
     7   -9.227278274282e-16
     8    3.647905998412e-11
     9    2.814165208419e-10
    10    1.409915863678e-09
    11    4.810294499199e-09
    12    1.158490377244e-08
    13    4.245356175856e-09
    14    1.438068146559e-08
    15   -7.793504261244e-10
    16    7.562596368290e-05
    17   -6.093032438791e-17
    18    2.981344226003e-09
    19   -1.304205658596e-09
    20    7.082496766539e-04
    21    2.710481761805e-16
    22   -1.299196102641e-08
    23    8.484754935508e-09
    24   -4.710426453855e-04
    25   -2.144984584461e-16
    26   -2.881068049728e-09
    27    1.985026974607e-09
    28    4.811188329193e-04
    29   -1.807367310980e-14
    30   -2.170633359311e-10
    31    2.512016268650e-10
    32   -5.516399023898e-05
    33    9.840092224390e-14
    34   -1.654424942812e-10
    35    8.772426285375e-16
    36   -4.781619578624e-16
    37   -1.369535907038e-09
    38   -4.049092442435e-04
    39    5.545421440085e-04
    40    4.293006979444e-03
    41    2.141559463415e-02
    42    7.352577390237e-02
    43    1.737062405932e-01
    44    6.346524529778e-02
    45    2.324849920165e-01
    46   -3.101086341911e-05
    47    2.191283648656e-05
    48   -5.751822093470e-16
    49    9.119732776264e-04
    50   -3.813503269607e-04
    51    4.772519158447e-05
    52    1.490773845510e-15
    53    6.015299606429e-04
    54    1.377442102831e-04
    55   -2.324584660494e-04
    56   -2.862819208468e-15
    57   -6.447537877531e-04
    58   -1.479293781543e-04
    59    2.248933797817e-04
    60    1.581529267845e-14
    61   -3.711480087896e-05
    62    5.616351346819e-05
    63    4.211455596086e-05
    64   -9.965356681261e-14
    65   -9.334069349313e-05
    66   -5.570262382637e-16
    67    3.566738869538e-16
    68    2.317612121813e-04
    69    3.483388228997e-06
    70    2.083990136517e-04
    71    2.531401781085e-04
    72   -7.140876144324e-05
    73   -1.336277439615e-04
    74   -1.256872387530e-04
    75   -1.552357901725e-04
    76   -3.852873540748e-16
    77    5.545321678488e-04
    78    4.292929746648e-03
    79    2.141520937183e-02
    80    7.352445112587e-02
    81    1.737031159521e-01
    82    6.346410382048e-02
    83    2.324808077644e-01
    84    3.101231180532e-05
    85    2.191177010853e-05
    86   -5.649371669742e-16
    87    9.119627154041e-04
    88    3.813557380539e-04
    89    4.772848153527e-05
    90    7.958847281358e-16
    91    6.014931235407e-04
    92   -1.377575336886e-04
    93   -2.324438179914e-04
    94   -3.422850447350e-16
    95   -6.447481394316e-04
    96    1.479322038699e-04
    97    2.248970127782e-04
    98   -1.782971353497e-14
    99   -3.711457035771e-05
   100   -5.616360960161e-05
   101    4.211373833795e-05
   102    8.130663989878e-14
   103   -9.333932971992e-05
   104   -6.215782549204e-16
   105    4.052026363861e-16
   106    2.317647010426e-04
   107   -3.484613051713e-06
   108    2.083957945886e-04
   109    2.531345419236e-04
   110   -7.141318973144e-05
   111   -1.336280187076e-04
   112    1.256863473758e-04
   113   -1.552331224409e-04
   114   -4.787301085811e-16
   115    4.076492933160e-11
   116    3.165880561996e-10
   117    1.573130955163e-09
   118    5.431688257050e-09
   119    1.260858497626e-08
   120    4.578965357957e-09
   121    1.801159664671e-08
   122   -7.833368111741e-10
   123    7.562596312139e-05
   124   -4.073313106405e-16
   125   -2.816475849694e-09
   126   -1.256626232721e-09
   127    7.082496747559e-04
   128    4.068673220768e-16
   129    1.303058946548e-08
   130    8.490523759681e-09
   131   -4.710426452001e-04
   132   -3.473001312449e-15
   133    2.852658344025e-09
   134    1.970982827538e-09
   135    4.811188462452e-04
   136    2.246025885244e-14
   137    2.110396717043e-10
   138    2.414940283104e-10
   139   -5.516398998182e-05
   140   -5.962384406178e-14
   141    1.522123658576e-10
   142   -4.549397385861e-16
   143    3.264682640594e-16
   144    1.348038035086e-09
   145    4.049092432224e-04
   146   -2.482214541100e-10
   147    5.626239763949e-10
   148    2.856929278278e-09
   149    1.351818017178e-09
   150   -3.800360922319e-10
   151    6.246146453465e-05
   152   -1.045019366393e-15
   153   -5.545421007652e-04
   154   -4.293006644661e-03
   155   -2.141559296414e-02
   156   -7.352576816861e-02
   157   -1.737062270489e-01
   158   -6.346524036367e-02
   159   -2.324849738849e-01
   160   -3.101086674133e-05
   161    2.191283935887e-05
   162    1.496355738171e-15
   163   -9.119731517038e-04
   164   -3.813503140412e-04
   165    4.772524304582e-05
   166   -4.378939916278e-15
   167   -6.015299659956e-04
   168    1.377442085533e-04
   169   -2.324584796180e-04
   170    7.171231803566e-15
   171    6.447538235164e-04
   172   -1.479293954189e-04
   173    2.248933898731e-04
   174   -2.853010174520e-14
   175    3.711479962301e-05
   176    5.616351606479e-05
   177    4.211455282003e-05
   178    6.157360648616e-14
   179    9.334068476213e-05
   180    6.565913752069e-16
   181    2.473882268738e-17
   182   -2.317612075809e-04
   183   -3.483411957206e-06
   184   -2.083989936413e-04
   185   -2.531401441431e-04
   186    7.140873367950e-05
   187    1.336277441146e-04
   188   -1.256872277982e-04
   189   -1.552357690959e-04
   190   -5.802358054989e-16
   191   -5.545321296804e-04
   192   -4.292929451163e-03
   193   -2.141520789783e-02
   194   -7.352444606514e-02
   195   -1.737031039976e-01
   196   -6.346409946718e-02
   197   -2.324807917617e-01
   198    3.101231428071e-05
   199    2.191177330700e-05
   200   -4.538430715828e-16
   201   -9.119625952700e-04
   202    3.813557231826e-04
   203    4.772853250171e-05
   204    5.400249468488e-16
   205   -6.014931354757e-04
   206   -1.377575292497e-04
   207   -2.324438331308e-04
   208   -6.675322789930e-15
   209    6.447481884760e-04
   210    1.479321936969e-04
   211    2.248970132525e-04
   212    2.517782058218e-14
   213    3.711457029141e-05
   214   -5.616361291308e-05
   215    4.211373530867e-05
   216   -7.826159108454e-14
   217    9.333932165672e-05
   218    1.204231495836e-15
   219   -7.240244446465e-16
   220   -2.317646954524e-04
   221    3.484636448216e-06
   222   -2.083957762578e-04
   223   -2.531345099006e-04
   224    7.141316202039e-05
   225    1.336280222261e-04
   226    1.256863369270e-04
   227   -1.552331025552e-04
   228   -8.056626891447e-16
Sym=X
Ene= -0.025915
Spin=Alpha
Occup=1
     1   -1.250612612800e-04
     2   -2.685720786705e-04
     3   -3.345063237172e-04
     4   -8.021463715990e-05
     5    9.827591734474e-05
     6   -4.701713000036e-10
     7   -3.773867177939e-16
     8   -4.284297906802e-04
     9   -3.316840068958e-03
    10   -1.654516635806e-02
    11   -5.680838549922e-02
    12   -1.341806969438e-01
    13   -4.902098772126e-02
    14   -1.797390794499e-01
    15   -1.091336995154e-04
    16   -5.958770505841e-10
    17   -1.198720810651e-15
    18   -3.103301951612e-04
    19   -5.876725625143e-05
    20   -5.288900578366e-09
    21    2.236006491867e-15
    22   -2.232656412827e-03
    23    1.255843200099e-03
    24    3.525790806276e-09
    25    1.750851703594e-16
    26    9.778799284761e-05
    27    1.743077824778e-04
    28   -3.591125432775e-09
    29    2.417328301001e-14
    30   -9.078912316710e-07
    31   -1.593992539954e-05
    32    4.071826978166e-10
    33   -7.492325204667e-13
    34    5.066994710081e-05
    35   -2.101154551366e-16
    36    2.893028488952e-16
    37   -9.761228855639e-05
    38    3.036659479153e-09
    39    4.647910506557e-04
    40    3.598332006950e-03
    41    1.794938425664e-02
    42    6.162946142248e-02
    43    1.455705937225e-01
    44    5.318239595863e-02
    45    1.949830916740e-01
    46    5.682845274862e-05
    47    9.346975272501e-05
    48    2.397922821305e-15
    49    3.701282718952e-04
    50    4.460110476667e-05
    51    3.080053278044e-05
    52   -4.655254245663e-15
    53    2.272097864221e-03
    54   -6.456407053185e-04
    55   -1.087388967413e-03
    56    4.829696267599e-15
    57   -1.400641788032e-04
    58   -6.953006113847e-05
    59   -1.519836799219e-04
    60   -3.305921545995e-14
    61   -1.525729893558e-06
    62    8.519747708715e-06
    63    1.837462916866e-05
    64    7.760814550829e-13
    65   -5.679029484680e-05
    66    4.680773307875e-16
    67    9.649067410671e-16
    68   -5.660500537493e-05
    69    7.148658680075e-05
    70    1.387259852345e-04
    71    2.851704575482e-04
    72    3.298237458051e-04
    73    7.145250960692e-05
    74   -5.383198595766e-05
    75   -9.733630563529e-05
    76   -6.563508406213e-16
    77   -4.647994077106e-04
    78   -3.598396703368e-03
    79   -1.794970699356e-02
    80   -6.163056946853e-02
    81   -1.455732115047e-01
    82   -5.318335246089e-02
    83   -1.949865952448e-01
    84    5.682794543907e-05
    85   -9.347008646443e-05
    86    4.458337559772e-16
    87   -3.701420720691e-04
    88    4.459537751478e-05
    89   -3.080124224096e-05
    90   -7.236580564237e-16
    91   -2.272106905600e-03
    92   -6.456386480753e-04
    93    1.087392472724e-03
    94   -1.820498303973e-15
    95    1.400738472269e-04
    96   -6.953228406171e-05
    97    1.519803129548e-04
    98    2.845445610066e-14
    99    1.526287390711e-06
   100    8.520593726028e-06
   101   -1.837526201059e-05
   102   -7.609852318509e-13
   103    5.679170599577e-05
   104    1.431930135224e-17
   105    4.488190617458e-16
   106    5.660150993651e-05
   107    7.148663494289e-05
   108   -1.387291279807e-04
   109   -2.851742717472e-04
   110   -3.298226824766e-04
   111   -7.145050884821e-05
   112   -5.383388094214e-05
   113    9.733864375628e-05
   114   -3.942855992110e-16
   115    4.284297978582e-04
   116    3.316840124512e-03
   117    1.654516663522e-02
   118    5.680838645080e-02
   119    1.341806991916e-01
   120    4.902098854250e-02
   121    1.797390824601e-01
   122   -1.091337005531e-04
   123   -6.090088090369e-10
   124   -8.400674034138e-16
   125    3.103302031433e-04
   126   -5.876725716059e-05
   127   -5.333887200803e-09
   128    1.286097812743e-15
   129    2.232656422286e-03
   130    1.255843203994e-03
   131    3.541141681939e-09
   132   -4.048586032450e-15
   133   -9.778801000153e-05
   134    1.743077778485e-04
   135   -3.623130221536e-09
   136   -1.516710206448e-14
   137    9.078899201547e-07
   138   -1.593992797405e-05
   139    4.221456967928e-10
   140    7.183136888997e-13
   141   -5.066994803065e-05
   142    1.122896315928e-16
   143    4.279126417138e-16
   144    9.761228893738e-05
   145   -3.060997965904e-09
   146    1.250612636743e-04
   147    2.685720812430e-04
   148    3.345063241974e-04
   149    8.021463482806e-05
   150    9.827591912808e-05
   151   -4.733769670388e-10
   152    2.987140290922e-16
   153   -4.647909942419e-04
   154   -3.598331570202e-03
   155   -1.794938207801e-02
   156   -6.162945394226e-02
   157   -1.455705760530e-01
   158   -5.318238950346e-02
   159   -1.949830680121e-01
   160    5.682844202135e-05
   161    9.346974970022e-05
   162    1.347566353421e-15
   163   -3.701282072657e-04
   164    4.460107875246e-05
   165    3.080054084714e-05
   166   -5.570348074762e-16
   167   -2.272097792024e-03
   168   -6.456406826598e-04
   169   -1.087388944599e-03
   170    3.861644072512e-15
   171    1.400640985596e-04
   172   -6.953006475042e-05
   173   -1.519836944226e-04
   174    7.605566050483e-15
   175    1.525724367842e-06
   176    8.519749460273e-06
   177    1.837461259915e-05
   178   -6.922701550985e-13
   179    5.679028746121e-05
   180   -2.684775312587e-16
   181   -3.816583250238e-16
   182    5.660499171099e-05
   183   -7.148659191500e-05
   184   -1.387259663109e-04
   185   -2.851704367768e-04
   186   -3.298237405627e-04
   187   -7.145251657972e-05
   188   -5.383198041880e-05
   189   -9.733629229083e-05
   190   -8.292836459797e-16
   191    4.647993435833e-04
   192    3.598396206918e-03
   193    1.794970451709e-02
   194    6.163056096572e-02
   195    1.455731914197e-01
   196    5.318334512335e-02
   197    1.949865683483e-01
   198    5.682793626882e-05
   199   -9.347008133194e-05
   200   -9.741175415490e-17
   201    3.701419980782e-04
   202    4.459535842034e-05
   203   -3.080124584644e-05
   204    1.072778977029e-15
   205    2.272106823846e-03
   206   -6.456386258647e-04
   207    1.087392445257e-03
   208   -2.456313197745e-15
   209   -1.400737498222e-04
   210   -6.953228672695e-05
   211    1.519803332802e-04
   212   -1.225388806759e-14
   213   -1.526280518586e-06
   214    8.520590875611e-06
   215   -1.837524510569e-05
   216    7.091248739011e-13
   217   -5.679169757427e-05
   218   -9.841573021617e-18
   219    5.220166215823e-17
   220   -5.660150005595e-05
   221   -7.148663770248e-05
   222    1.387291064336e-04
   223    2.851742480384e-04
   224    3.298226769975e-04
   225    7.145051799238e-05
   226   -5.383387387477e-05
   227    9.733862893279e-05
   228   -9.539833933052e-17
Sym=X
Ene= -0.071640
Spin=Alpha
Occup=1
     1   -3.391876818347e-10
     2   -1.127094973635e-09
     3    2.052319323140e-09
     4   -3.261635197114e-10
     5    8.030887063870e-10
     6    2.942378403078e-05
     7    8.675535841736e-16
     8    3.938075845752e-11
     9    3.051600867266e-10
    10    1.521260632395e-09
    11    5.234158026532e-09
    12    1.234255310528e-08
    13    5.407190996121e-09
    14    1.692218224644e-08
    15    4.497399407991e-10
    16    1.198917793056e-04
    17    1.651278067168e-16
    18   -4.831516431529e-09
    19    3.553284171264e-09
    20    4.141522351960e-04
    21   -1.349987896686e-15
    22    4.014699500815e-09
    23   -2.413362532651e-09
    24   -1.364688063720e-04
    25   -8.849916638759e-16
    26   -5.971478804579e-09
    27    6.321268361115e-10
    28    1.580772454358e-04
    29    6.371541948315e-15
    30   -1.698746085676e-10
    31    5.354175625270e-10
    32   -1.362948311718e-04
    33   -1.305847019114e-13
    34    1.894656600906e-10
    35   -3.452334189001e-16
    36    1.087270484456e-15
    37    1.578392629342e-09
    38   -2.238848040700e-04
    39    5.547102527286e-04
    40    4.294430628456e-03
    41    2.142193165750e-02
    42    7.355126907176e-02
    43    1.737393870920e-01
    44    6.347052529450e-02
    45    2.326613274196e-01
    46    9.105412313597e-05
    47    3.781743704913e-05
    48    1.470710467898e-15
    49    6.373375610583e-04
    50    2.080523515104e-04
    51   -5.379878843337e-05
    52   -8.197752760994e-16
    53    7.075119342504e-04
    54   -2.110516856424e-04
    55   -2.290822258612e-04
    56   -2.698774800428e-15
    57   -7.827471297458e-04
    58    1.372235974510e-04
    59    7.959970167089e-05
    60   -1.194832408729e-14
    61   -5.385398835877e-05