annas-mbp-3.attlocal.net 192.168.1
Q-Chem Developer Version! Running on 192.168.1.*
                  Welcome to Q-Chem
     A Quantum Leap Into The Future Of Chemistry


 Q-Chem 5.1, Q-Chem, Inc., Pleasanton, CA (2018)

 Yihan Shao,  Zhengting Gan,  E. Epifanovsky,  A. T. B. Gilbert,  M. Wormit,  
 J. Kussmann,  A. W. Lange,  A. Behn,  Jia Deng,  Xintian Feng,  D. Ghosh,  
 M. Goldey,  P. R. Horn,  L. D. Jacobson,  I. Kaliman,  T. Kus,  A. Landau,  
 Jie Liu,  E. I. Proynov,  R. M. Richard,  R. P. Steele,  E. J. Sundstrom,  
 H. L. Woodcock III,  P. M. Zimmerman,  D. Zuev,  B. Albrecht,  E. Alguire,  
 S. A. Baeppler,  D. Barton,  Z. Benda,  Y. A. Bernard,  E. J. Berquist,  
 K. B. Bravaya,  H. Burton,  D. Casanova,  Chun-Min Chang,  Yunqing Chen,  
 A. Chien,  K. D. Closser,  M. P. Coons,  S. Coriani,  S. Dasgupta,  
 A. L. Dempwolff,  M. Diedenhofen,  Hainam Do,  R. G. Edgar,  Po-Tung Fang,  
 S. Faraji,  S. Fatehi,  Qingguo Feng,  K. D. Fenk,  J. Fosso-Tande,  
 Qinghui Ge,  A. Ghysels,  G. Gidofalvi,  J. Gomes,  J. Gonthier,  A. Gunina,  
 M. W. D. Hanson-Heine,  P. H. P. Harbach,  A. W. Hauser,  J. E. Herr,  
 E. G. Hohenstein,  Z. C. Holden,  Kerwin Hui,  T.-C. Jagau,  Hyunjun Ji,  
 B. Kaduk,  K. Khistyaev,  Jaehoon Kim,  P. Klunzinger,  K. Koh,  
 D. Kosenkov,  L. Koulias,  T. Kowalczyk,  C. M. Krauter,  A. Kunitsa,  
 Ka Un Lao,  A. Laurent,  K. V. Lawler,  Joonho Lee,  D. Lefrancois,  
 S. Lehtola,  D. S. Levine,  Yi-Pei Li,  You-Sheng Lin,  Fenglai Liu,  
 E. Livshits,  A. Luenser,  P. Manohar,  E. Mansoor,  S. F. Manzer,  
 Shan-Ping Mao,  Yuezhi Mao,  N. Mardirossian,  A. V. Marenich,  
 T. Markovich,  L. A. Martinez-Martinez,  S. A. Maurer,  N. J. Mayhall,  
 S. C. McKenzie,  J.-M. Mewes,  A. F. Morrison,  J. W. Mullinax,  K. Nanda,  
 T. S. Nguyen-Beck,  R. Olivares-Amaya,  J. A. Parkhill,  T. M. Perrine,  
 F. Plasser,  P. Pokhilko,  S. Prager,  A. Prociuk,  E. Ramos,  D. R. Rehn,  
 F. Rob,  M. Schneider,  N. Sergueev,  S. M. Sharada,  S. Sharma,  
 D. W. Small,  T. Stauch,  T. Stein,  Yu-Chuan Su,  A. J. W. Thom,  
 A. Tkatchenko,  T. Tsuchimochi,  N. M. Tubman,  L. Vogt,  M. L. Vidal,  
 O. Vydrov,  M. A. Watson,  J. Wenzel,  M. de Wergifosse,  T. A. Wesolowski,  
 A. White,  J. Witte,  A. Yamada,  Jun Yang,  K. Yao,  S. Yeganeh,  
 S. R. Yost,  Zhi-Qiang You,  A. Zech,  Igor Ying Zhang,  Xing Zhang,  
 Yan Zhao,  Ying Zhu,  B. R. Brooks,  G. K. L. Chan,  C. J. Cramer,  
 M. S. Gordon,  W. J. Hehre,  A. Klamt,  M. W. Schmidt,  C. D. Sherrill,  
 D. G. Truhlar,  A. Aspuru-Guzik,  R. Baer,  A. T. Bell,  N. A. Besley,  
 Jeng-Da Chai,  R. A. DiStasio Jr.,  A. Dreuw,  B. D. Dunietz,  
 T. R. Furlani,  Chao-Ping Hsu,  Yousung Jung,  Jing Kong,  D. S. Lambrecht,  
 WanZhen Liang,  C. Ochsenfeld,  V. A. Rassolov,  L. V. Slipchenko,  
 J. E. Subotnik,  T. Van Voorhis,  J. M. Herbert,  A. I. Krylov,  
 P. M. W. Gill,  M. Head-Gordon

 Contributors to earlier versions of Q-Chem not listed above: 
 R. D. Adamson,  B. Austin,  J. Baker,  G. J. O. Beran,  K. Brandhorst,  
 S. T. Brown,  E. F. C. Byrd,  A. K. Chakraborty,  C.-L. Cheng,  
 Siu Hung Chien,  D. M. Chipman,  D. L. Crittenden,  H. Dachsel,  
 R. J. Doerksen,  A. D. Dutoi,  L. Fusti-Molnar,  W. A. Goddard III,  
 A. Golubeva-Zadorozhnaya,  S. R. Gwaltney,  G. Hawkins,  A. Heyden,  
 S. Hirata,  G. Kedziora,  F. J. Keil,  C. Kelley,  Jihan Kim,  R. A. King,  
 R. Z. Khaliullin,  P. P. Korambath,  W. Kurlancheek,  A. M. Lee,  M. S. Lee,  
 S. V. Levchenko,  Ching Yeh Lin,  D. Liotard,  R. C. Lochan,  I. Lotan,  
 P. E. Maslen,  N. Nair,  D. P. O'Neill,  D. Neuhauser,  E. Neuscamman,  
 C. M. Oana,  R. Olson,  B. Peters,  R. Peverati,  P. A. Pieniazek,  
 Y. M. Rhee,  J. Ritchie,  M. A. Rohrdanz,  E. Rosta,  N. J. Russ,  
 H. F. Schaefer III,  N. E. Schultz,  N. Shenvi,  A. C. Simmonett,  A. Sodt,  
 D. Stuck,  K. S. Thanthiriwatte,  V. Vanovschi,  Tao Wang,  A. Warshel,  
 C. F. Williams,  Q. Wu,  X. Xu,  W. Zhang

 Please cite Q-Chem as follows:
 Y. Shao et al., Mol. Phys. 113, 184-215 (2015)
 DOI: 10.1080/00268976.2014.952696

 Q-Chem 5.1.0 for Mac (Intel) OS X

 Parts of Q-Chem use Armadillo 8.300.2 (Tropical Shenanigans).
 http://arma.sourceforge.net/

 Q-Chem begins on Fri Sep 28 19:13:47 2018  

Annas-MBP-3
Host: 0

     Scratch files written to /scratch/qchem32178//
Processing $rem in /Users/annakrylov/.qchemrc.
CC_MEMORY  4000
Core orbitals will be frozen

Checking the input file for inconsistencies... 	...done.

--------------------------------------------------------------
User input:
--------------------------------------------------------------
$comment
RI-MP2/cc-pVTZ optimized geometry. 
$end

$molecule
0 1
    H         2.4750347531    0.0000000000    0.0000000000
    C         1.3935929418    0.0000000000    0.0000000000
    C         0.6967964709    1.2068868901    0.0000000000
    H         1.2375173766    2.1434429715    0.0000000000
    C        -0.6967964709    1.2068868901    0.0000000000
    H        -1.2375173766    2.1434429715    0.0000000000
    C        -1.3935929418    0.0000000000    0.0000000000
    H        -2.4750347531    0.0000000000    0.0000000000
    C        -0.6967964709   -1.2068868901    0.0000000000
    H        -1.2375173766   -2.1434429715    0.0000000000
    C         0.6967964709   -1.2068868901    0.0000000000
    H         1.2375173766   -2.1434429715    0.0000000000
$end

$rem
   JOB_TYPE  =  SP
   BASIS  =  6-311(2+,+)G**
   METHOD  =  EOM-CCSD
   CVS_EE_STATES = [0,0,0,0,0,5,5,5]
!   CC_MEMORY = 80000
   cc_trans_prop = 1
   PRINT_GENERAL_BASIS = true
$end
--------------------------------------------------------------
 ----------------------------------------------------------------
             Standard Nuclear Orientation (Angstroms)
    I     Atom           X                Y                Z
 ----------------------------------------------------------------
    1      H       2.4750347531     0.0000000000    -0.0000000000
    2      C       1.3935929418     0.0000000000    -0.0000000000
    3      C       0.6967964709     1.2068868901     0.0000000000
    4      H       1.2375173766     2.1434429715     0.0000000000
    5      C      -0.6967964709     1.2068868901     0.0000000000
    6      H      -1.2375173766     2.1434429715     0.0000000000
    7      C      -1.3935929418     0.0000000000     0.0000000000
    8      H      -2.4750347531     0.0000000000     0.0000000000
    9      C      -0.6967964709    -1.2068868901    -0.0000000000
   10      H      -1.2375173766    -2.1434429715    -0.0000000000
   11      C       0.6967964709    -1.2068868901    -0.0000000000
   12      H       1.2375173766    -2.1434429715    -0.0000000000
 ----------------------------------------------------------------
 Molecular Point Group                 D2h   NOp =  8
 Largest Abelian Subgroup              D2h   NOp =  8
 Nuclear Repulsion Energy =   203.7187449024 hartrees
 There are       21 alpha and       21 beta electrons
 Requested basis set is 6-311(2+,+)G(d,p)
Basis set in general basis input format:
-----------------------------------------------------------------------
$basis
H    0
S    3    1.000000
   3.38650000E+01    2.54938000E-02 
   5.09479000E+00    1.90373000E-01 
   1.15879000E+00    8.52161000E-01 
S    1    1.000000
   3.25840000E-01    1.00000000E+00 
S    1    1.000000
   1.02741000E-01    1.00000000E+00 
S    1    1.000000
   3.60000000E-02    1.00000000E+00 
P    1    1.000000
   7.50000000E-01    1.00000000E+00 
****
C    0
S    6    1.000000
   4.56324000E+03    1.96665000E-03 
   6.82024000E+02    1.52306000E-02 
   1.54973000E+02    7.61269000E-02 
   4.44553000E+01    2.60801000E-01 
   1.30290000E+01    6.16462000E-01 
   1.82773000E+00    2.21006000E-01 
SP   3    1.000000
   2.09642000E+01    1.14660000E-01   4.02487000E-02 
   4.80331000E+00    9.19999000E-01   2.37594000E-01 
   1.45933000E+00   -3.03068000E-03   8.15854000E-01 
SP   1    1.000000
   4.83456000E-01    1.00000000E+00   1.00000000E+00 
SP   1    1.000000
   1.45585000E-01    1.00000000E+00   1.00000000E+00 
SP   1    1.000000
   4.38000000E-02    1.00000000E+00   1.00000000E+00 
SP   1    1.000000
   1.31927711E-02    1.00000000E+00   1.00000000E+00 
D    1    1.000000
   6.26000000E-01    1.00000000E+00 
****
C    0
S    6    1.000000
   4.56324000E+03    1.96665000E-03 
   6.82024000E+02    1.52306000E-02 
   1.54973000E+02    7.61269000E-02 
   4.44553000E+01    2.60801000E-01 
   1.30290000E+01    6.16462000E-01 
   1.82773000E+00    2.21006000E-01 
SP   3    1.000000
   2.09642000E+01    1.14660000E-01   4.02487000E-02 
   4.80331000E+00    9.19999000E-01   2.37594000E-01 
   1.45933000E+00   -3.03068000E-03   8.15854000E-01 
SP   1    1.000000
   4.83456000E-01    1.00000000E+00   1.00000000E+00 
SP   1    1.000000
   1.45585000E-01    1.00000000E+00   1.00000000E+00 
SP   1    1.000000
   4.38000000E-02    1.00000000E+00   1.00000000E+00 
SP   1    1.000000
   1.31927711E-02    1.00000000E+00   1.00000000E+00 
D    1    1.000000
   6.26000000E-01    1.00000000E+00 
****
H    0
S    3    1.000000
   3.38650000E+01    2.54938000E-02 
   5.09479000E+00    1.90373000E-01 
   1.15879000E+00    8.52161000E-01 
S    1    1.000000
   3.25840000E-01    1.00000000E+00 
S    1    1.000000
   1.02741000E-01    1.00000000E+00 
S    1    1.000000
   3.60000000E-02    1.00000000E+00 
P    1    1.000000
   7.50000000E-01    1.00000000E+00 
****
C    0
S    6    1.000000
   4.56324000E+03    1.96665000E-03 
   6.82024000E+02    1.52306000E-02 
   1.54973000E+02    7.61269000E-02 
   4.44553000E+01    2.60801000E-01 
   1.30290000E+01    6.16462000E-01 
   1.82773000E+00    2.21006000E-01 
SP   3    1.000000
   2.09642000E+01    1.14660000E-01   4.02487000E-02 
   4.80331000E+00    9.19999000E-01   2.37594000E-01 
   1.45933000E+00   -3.03068000E-03   8.15854000E-01 
SP   1    1.000000
   4.83456000E-01    1.00000000E+00   1.00000000E+00 
SP   1    1.000000
   1.45585000E-01    1.00000000E+00   1.00000000E+00 
SP   1    1.000000
   4.38000000E-02    1.00000000E+00   1.00000000E+00 
SP   1    1.000000
   1.31927711E-02    1.00000000E+00   1.00000000E+00 
D    1    1.000000
   6.26000000E-01    1.00000000E+00 
****
H    0
S    3    1.000000
   3.38650000E+01    2.54938000E-02 
   5.09479000E+00    1.90373000E-01 
   1.15879000E+00    8.52161000E-01 
S    1    1.000000
   3.25840000E-01    1.00000000E+00 
S    1    1.000000
   1.02741000E-01    1.00000000E+00 
S    1    1.000000
   3.60000000E-02    1.00000000E+00 
P    1    1.000000
   7.50000000E-01    1.00000000E+00 
****
C    0
S    6    1.000000
   4.56324000E+03    1.96665000E-03 
   6.82024000E+02    1.52306000E-02 
   1.54973000E+02    7.61269000E-02 
   4.44553000E+01    2.60801000E-01 
   1.30290000E+01    6.16462000E-01 
   1.82773000E+00    2.21006000E-01 
SP   3    1.000000
   2.09642000E+01    1.14660000E-01   4.02487000E-02 
   4.80331000E+00    9.19999000E-01   2.37594000E-01 
   1.45933000E+00   -3.03068000E-03   8.15854000E-01 
SP   1    1.000000
   4.83456000E-01    1.00000000E+00   1.00000000E+00 
SP   1    1.000000
   1.45585000E-01    1.00000000E+00   1.00000000E+00 
SP   1    1.000000
   4.38000000E-02    1.00000000E+00   1.00000000E+00 
SP   1    1.000000
   1.31927711E-02    1.00000000E+00   1.00000000E+00 
D    1    1.000000
   6.26000000E-01    1.00000000E+00 
****
H    0
S    3    1.000000
   3.38650000E+01    2.54938000E-02 
   5.09479000E+00    1.90373000E-01 
   1.15879000E+00    8.52161000E-01 
S    1    1.000000
   3.25840000E-01    1.00000000E+00 
S    1    1.000000
   1.02741000E-01    1.00000000E+00 
S    1    1.000000
   3.60000000E-02    1.00000000E+00 
P    1    1.000000
   7.50000000E-01    1.00000000E+00 
****
C    0
S    6    1.000000
   4.56324000E+03    1.96665000E-03 
   6.82024000E+02    1.52306000E-02 
   1.54973000E+02    7.61269000E-02 
   4.44553000E+01    2.60801000E-01 
   1.30290000E+01    6.16462000E-01 
   1.82773000E+00    2.21006000E-01 
SP   3    1.000000
   2.09642000E+01    1.14660000E-01   4.02487000E-02 
   4.80331000E+00    9.19999000E-01   2.37594000E-01 
   1.45933000E+00   -3.03068000E-03   8.15854000E-01 
SP   1    1.000000
   4.83456000E-01    1.00000000E+00   1.00000000E+00 
SP   1    1.000000
   1.45585000E-01    1.00000000E+00   1.00000000E+00 
SP   1    1.000000
   4.38000000E-02    1.00000000E+00   1.00000000E+00 
SP   1    1.000000
   1.31927711E-02    1.00000000E+00   1.00000000E+00 
D    1    1.000000
   6.26000000E-01    1.00000000E+00 
****
H    0
S    3    1.000000
   3.38650000E+01    2.54938000E-02 
   5.09479000E+00    1.90373000E-01 
   1.15879000E+00    8.52161000E-01 
S    1    1.000000
   3.25840000E-01    1.00000000E+00 
S    1    1.000000
   1.02741000E-01    1.00000000E+00 
S    1    1.000000
   3.60000000E-02    1.00000000E+00 
P    1    1.000000
   7.50000000E-01    1.00000000E+00 
****
C    0
S    6    1.000000
   4.56324000E+03    1.96665000E-03 
   6.82024000E+02    1.52306000E-02 
   1.54973000E+02    7.61269000E-02 
   4.44553000E+01    2.60801000E-01 
   1.30290000E+01    6.16462000E-01 
   1.82773000E+00    2.21006000E-01 
SP   3    1.000000
   2.09642000E+01    1.14660000E-01   4.02487000E-02 
   4.80331000E+00    9.19999000E-01   2.37594000E-01 
   1.45933000E+00   -3.03068000E-03   8.15854000E-01 
SP   1    1.000000
   4.83456000E-01    1.00000000E+00   1.00000000E+00 
SP   1    1.000000
   1.45585000E-01    1.00000000E+00   1.00000000E+00 
SP   1    1.000000
   4.38000000E-02    1.00000000E+00   1.00000000E+00 
SP   1    1.000000
   1.31927711E-02    1.00000000E+00   1.00000000E+00 
D    1    1.000000
   6.26000000E-01    1.00000000E+00 
****
H    0
S    3    1.000000
   3.38650000E+01    2.54938000E-02 
   5.09479000E+00    1.90373000E-01 
   1.15879000E+00    8.52161000E-01 
S    1    1.000000
   3.25840000E-01    1.00000000E+00 
S    1    1.000000
   1.02741000E-01    1.00000000E+00 
S    1    1.000000
   3.60000000E-02    1.00000000E+00 
P    1    1.000000
   7.50000000E-01    1.00000000E+00 
****
$end
-----------------------------------------------------------------------
 There are 72 shells and 198 basis functions
MEM_TOTAL is adjusted to CC_MEMORY + MEM_STATIC!
 Total memory of 4192MB is distributed as follows: 
   QALLOC including MEM_STATIC uses 192MB
   MEM_STATIC is set to 192MB
   CCMAN JOB total memory use is  4000MB
 Warning: actual memory use might exceed 4192MB

 Total QAlloc Memory Limit    192 MB
 Mega-Array Size       188 MB
 MEM_STATIC part       192 MB

                       Distance Matrix (Angstroms)
             H (  1)   C (  2)   C (  3)   H (  4)   C (  5)   H (  6)
   C (  2)  1.081442
   C (  3)  2.149118  1.393593
   H (  4)  2.475035  2.149118  1.081442
   C (  5)  3.393684  2.413774  1.393593  2.149118
   H (  6)  4.286886  3.393684  2.149118  2.475035  1.081442
   C (  7)  3.868628  2.787186  2.413774  3.393684  1.393593  2.149118
   H (  8)  4.950070  3.868628  3.393684  4.286886  2.149118  2.475035
   C (  9)  3.393684  2.413774  2.787186  3.868628  2.413774  3.393684
   H ( 10)  4.286886  3.393684  3.868628  4.950070  3.393684  4.286886
   C ( 11)  2.149118  1.393593  2.413774  3.393684  2.787186  3.868628
   H ( 12)  2.475035  2.149118  3.393684  4.286886  3.868628  4.950070
             C (  7)   H (  8)   C (  9)   H ( 10)   C ( 11)
   H (  8)  1.081442
   C (  9)  1.393593  2.149118
   H ( 10)  2.149118  2.475035  1.081442
   C ( 11)  2.413774  3.393684  1.393593  2.149118
   H ( 12)  3.393684  4.286886  2.149118  2.475035  1.081442

 A cutoff of  1.0D-14 yielded   2598 shell pairs
 There are     19875 function pairs (     21114 Cartesian)
 Smallest overlap matrix eigenvalue = 9.20E-09
 Linear dependence detected in AO basis
 Number of orthogonalized atomic orbitals = 191
 Maximum deviation from orthogonality = 1.741E-10

 Scale SEOQF with 1.000000e-01/1.000000e-01/1.000000e-01

 Standard Electronic Orientation quadrupole field applied
 Nucleus-field energy     =     0.0000000057 hartrees
 Guess from superposition of atomic densities
 Warning:  Energy on first SCF cycle will be non-variational
 SAD guess density has 42.000000 electrons

 -----------------------------------------------------------------------
  General SCF calculation program by
  Eric Jon Sundstrom, Paul Horn, Yuezhi Mao, Dmitri Zuev, Alec White,
  David Stuck, Shaama M.S., Shane Yost, Joonho Lee, David Small,
  Daniel Levine, Susi Lehtola, Hugh Burton, Evgeny Epifanovsky
 -----------------------------------------------------------------------
 Hartree-Fock
 A restricted SCF calculation will be
 performed using DIIS
 SCF converges when DIIS error is below 1.0e-08
 ---------------------------------------
  Cycle       Energy         DIIS error
 ---------------------------------------
    1    -233.2567046476      4.73e-02  
    2    -230.6922253269      3.03e-03  
    3    -230.7514741654      8.26e-04  
    4    -230.7559292378      3.18e-04  
    5    -230.7564345569      3.14e-05  
    6    -230.7564452148      5.83e-06  
    7    -230.7564457138      1.69e-06  
    8    -230.7564457558      1.76e-07  
    9    -230.7564457567      2.25e-08  
   10    -230.7564457569      2.53e-09  Convergence criterion met
 ---------------------------------------
 SCF time:   CPU 12.56s  wall 13.00s 
 SCF   energy in the final basis set =     -230.7564457569


 ------------------------------------------------------------------------------

   CCMAN2: suite of methods based on coupled cluster
           and equation of motion theories.

   Components:
   * libvmm-1.3-trunk
     by Evgeny Epifanovsky, Ilya Kaliman.
   * libtensor-2.5-trunk
     by Evgeny Epifanovsky, Michael Wormit, Dmitry Zuev, Sam Manzer, 
        Ilya Kaliman.
   * libcc-2.5-trunk
     by Evgeny Epifanovsky, Arik Landau, Tomasz Kus, Kirill Khistyaev, 
        Dmitry Zuev, Prashant Manohar, Xintian Feng, Anna Krylov, 
        Matthew Goldey, Alec White, Thomas Jagau, Kaushik Nanda, 
        Anastasia Gunina, Alexander Kunitsa, Joonho Lee.

   CCMAN original authors:
   Anna I. Krylov, C. David Sherrill, Steven R. Gwaltney,
   Edward F. C. Byrd (2000)
   Sergey V. Levchenko, Lyudmila V. Slipchenko, Tao Wang,
   Ana-Maria C. Cristian (2003)
   Piotr A. Pieniazek, C. Melania Oana, Evgeny Epifanovsky (2007)
   Prashant Manohar (2009)

 ------------------------------------------------------------------------------


 Calculation will run on 1 core with 4000MB of RAM.


 Alpha MOs, Restricted
 -- Occupied --                  
-11.238 -11.238 -11.238 -11.236 -11.236 -11.236  -1.153  -1.017
  1 Ag    1 B3u   1 B2u   2 Ag    1 B1g   2 B3u   3 Ag    3 B3u                
 -1.017  -0.826  -0.826  -0.712  -0.645  -0.621  -0.590  -0.590
  2 B2u   4 Ag    2 B1g   5 Ag    4 B3u   3 B2u   5 B3u   4 B2u                
 -0.502  -0.496  -0.496  -0.337  -0.337
  1 B1u   6 Ag    3 B1g   1 B2g   1 B3g                                        
 -- Virtual --                   
  0.017   0.022   0.022   0.033   0.033   0.034   0.044   0.044
  7 Ag    6 B3u   5 B2u   8 Ag    4 B1g   2 B1u   2 B2g   2 B3g                
  0.049   0.054   0.056   0.056   0.057   0.067   0.067   0.069
  7 B3u   6 B2u   3 B1u   1 Au    9 Ag    8 B3u   7 B2u   3 B2g                
  0.070   0.070   0.084   0.093   0.093   0.103   0.103   0.114
 10 Ag    5 B1g  11 Ag    9 B3u   8 B2u  12 Ag    6 B1g   4 B1u                
  0.114   0.131   0.172   0.186   0.186   0.186   0.195   0.204
  2 Au   10 B3u   5 B1u   4 B2g   3 B3g   9 B2u  13 Ag   14 Ag                 
  0.204   0.225   0.225   0.225   0.237   0.239   0.239   0.247
  7 B1g  11 B3u  10 B2u   5 B2g  15 Ag    6 B1u   3 Au   16 Ag                 
  0.247   0.250   0.250   0.255   0.255   0.281   0.289   0.289
  8 B1g  12 B3u  11 B2u  13 B3u  12 B2u  14 B3u  17 Ag    9 B1g                
  0.303   0.339   0.374   0.413   0.426   0.426   0.455   0.455
 10 B1g  18 Ag    6 B2g  15 B3u  16 B3u  13 B2u  19 Ag   11 B1g                
  0.515   0.515   0.523   0.523   0.622   0.623   0.719   0.744
 20 Ag   12 B1g  17 B3u  14 B2u  21 Ag   15 B2u  18 B3u  19 B3u                
  0.744   0.751   0.752   0.758   0.758   0.785   0.785   0.833
 16 B2u   7 B1u  13 B1g  22 Ag   14 B1g   7 B2g   4 B3g  23 Ag                 
  0.836   0.836   0.891   0.896   0.941   0.941   0.962   0.962
  8 B1u   4 Au   20 B3u   8 B2g  21 B3u  17 B2u  24 Ag   15 B1g                
  0.997   1.017   1.017   1.068   1.068   1.109   1.131   1.138
 25 Ag   22 B3u  18 B2u  26 Ag   16 B1g  23 B3u  17 B1g  24 B3u                
  1.138   1.170   1.224   1.224   1.250   1.324   1.324   1.392
 19 B2u   9 B1u  27 Ag   18 B1g   5 B3g   9 B2g   6 B3g  10 B1u                
  1.392   1.503   1.562   1.720   1.794   1.794   1.800   1.829
  5 Au   25 B3u  28 Ag   20 B2u  26 B3u  21 B2u  29 Ag   10 B2g                
  1.848   1.848   1.912   1.912   1.936   1.936   1.993   2.056
 11 B1u   6 Au   19 B1g  30 Ag   22 B2u  27 B3u  12 B1u  11 B2g                
  2.056   2.112   2.112   2.132   2.239   2.239   2.239   2.253
  7 B3g  31 Ag   20 B1g  23 B2u   8 B3g  12 B2g  21 B1g  28 B3u                
  2.253   2.302   2.352   2.352   2.381   2.381   2.642   2.664
 24 B2u  29 B3u  22 B1g  32 Ag   13 B1u   7 Au   13 B2g   8 Au                 
  2.751   2.751   2.770   2.833   2.833   2.965   2.965   2.980
 33 Ag   23 B1g  34 Ag   30 B3u  25 B2u  26 B2u  31 B3u  32 B3u                
  3.008   3.036   3.036   3.036   3.047   3.047   3.082   3.209
 35 Ag   33 B3u  27 B2u  34 B3u  36 Ag   24 B1g  14 B1u  14 B2g                
  3.209   3.268   3.302   3.302   3.340   3.340   3.487   3.557
  9 B3g  25 B1g  15 B1u   9 Au   37 Ag   26 B1g  15 B2g  28 B2u                
  3.779   3.779   3.914   3.914   3.939   4.085   4.413   4.413
 27 B1g  38 Ag   35 B3u  29 B2u  39 Ag   36 B3u  40 Ag   28 B1g                
  4.498   4.576   4.576   5.279  24.754  25.144  25.144  25.263
 37 B3u  38 B3u  30 B2u  29 B1g  41 Ag   39 B3u  31 B2u  42 Ag                 
 25.263  25.368
 30 B1g  40 B3u                                                                

 Beta MOs, Restricted
 -- Occupied --                  
-11.238 -11.238 -11.238 -11.236 -11.236 -11.236  -1.153  -1.017
  1 Ag    1 B3u   1 B2u   2 Ag    1 B1g   2 B3u   3 Ag    3 B3u                
 -1.017  -0.826  -0.826  -0.712  -0.645  -0.621  -0.590  -0.590
  2 B2u   4 Ag    2 B1g   5 Ag    4 B3u   3 B2u   5 B3u   4 B2u                
 -0.502  -0.496  -0.496  -0.337  -0.337
  1 B1u   6 Ag    3 B1g   1 B2g   1 B3g                                        
 -- Virtual --                   
  0.017   0.022   0.022   0.033   0.033   0.034   0.044   0.044
  7 Ag    6 B3u   5 B2u   8 Ag    4 B1g   2 B1u   2 B2g   2 B3g                
  0.049   0.054   0.056   0.056   0.057   0.067   0.067   0.069
  7 B3u   6 B2u   3 B1u   1 Au    9 Ag    8 B3u   7 B2u   3 B2g                
  0.070   0.070   0.084   0.093   0.093   0.103   0.103   0.114
 10 Ag    5 B1g  11 Ag    9 B3u   8 B2u  12 Ag    6 B1g   4 B1u                
  0.114   0.131   0.172   0.186   0.186   0.186   0.195   0.204
  2 Au   10 B3u   5 B1u   4 B2g   3 B3g   9 B2u  13 Ag   14 Ag                 
  0.204   0.225   0.225   0.225   0.237   0.239   0.239   0.247
  7 B1g  11 B3u  10 B2u   5 B2g  15 Ag    6 B1u   3 Au   16 Ag                 
  0.247   0.250   0.250   0.255   0.255   0.281   0.289   0.289
  8 B1g  12 B3u  11 B2u  13 B3u  12 B2u  14 B3u  17 Ag    9 B1g                
  0.303   0.339   0.374   0.413   0.426   0.426   0.455   0.455
 10 B1g  18 Ag    6 B2g  15 B3u  16 B3u  13 B2u  19 Ag   11 B1g                
  0.515   0.515   0.523   0.523   0.622   0.623   0.719   0.744
 20 Ag   12 B1g  17 B3u  14 B2u  21 Ag   15 B2u  18 B3u  19 B3u                
  0.744   0.751   0.752   0.758   0.758   0.785   0.785   0.833
 16 B2u   7 B1u  13 B1g  22 Ag   14 B1g   7 B2g   4 B3g  23 Ag                 
  0.836   0.836   0.891   0.896   0.941   0.941   0.962   0.962
  8 B1u   4 Au   20 B3u   8 B2g  21 B3u  17 B2u  24 Ag   15 B1g                
  0.997   1.017   1.017   1.068   1.068   1.109   1.131   1.138
 25 Ag   22 B3u  18 B2u  26 Ag   16 B1g  23 B3u  17 B1g  24 B3u                
  1.138   1.170   1.224   1.224   1.250   1.324   1.324   1.392
 19 B2u   9 B1u  27 Ag   18 B1g   5 B3g   9 B2g   6 B3g  10 B1u                
  1.392   1.503   1.562   1.720   1.794   1.794   1.800   1.829
  5 Au   25 B3u  28 Ag   20 B2u  26 B3u  21 B2u  29 Ag   10 B2g                
  1.848   1.848   1.912   1.912   1.936   1.936   1.993   2.056
 11 B1u   6 Au   19 B1g  30 Ag   22 B2u  27 B3u  12 B1u  11 B2g                
  2.056   2.112   2.112   2.132   2.239   2.239   2.239   2.253
  7 B3g  31 Ag   20 B1g  23 B2u   8 B3g  12 B2g  21 B1g  28 B3u                
  2.253   2.302   2.352   2.352   2.381   2.381   2.642   2.664
 24 B2u  29 B3u  22 B1g  32 Ag   13 B1u   7 Au   13 B2g   8 Au                 
  2.751   2.751   2.770   2.833   2.833   2.965   2.965   2.980
 33 Ag   23 B1g  34 Ag   30 B3u  25 B2u  26 B2u  31 B3u  32 B3u                
  3.008   3.036   3.036   3.036   3.047   3.047   3.082   3.209
 35 Ag   33 B3u  27 B2u  34 B3u  36 Ag   24 B1g  14 B1u  14 B2g                
  3.209   3.268   3.302   3.302   3.340   3.340   3.487   3.557
  9 B3g  25 B1g  15 B1u   9 Au   37 Ag   26 B1g  15 B2g  28 B2u                
  3.779   3.779   3.914   3.914   3.939   4.085   4.413   4.413
 27 B1g  38 Ag   35 B3u  29 B2u  39 Ag   36 B3u  40 Ag   28 B1g                
  4.498   4.576   4.576   5.279  24.754  25.144  25.144  25.263
 37 B3u  38 B3u  30 B2u  29 B1g  41 Ag   39 B3u  31 B2u  42 Ag                 
 25.263  25.368
 30 B1g  40 B3u                                                                

 Occupation and symmetry of molecular orbitals

 Point group: D2h (8 irreducible representations).

                           Ag   B1g  B2g  B3g  Au   B1u  B2u  B3u   All 
 ------------------------------------------------------------------------
 All molecular orbitals:
  - Alpha                  42   30   15   9    9    15   31   40    191 
  - Beta                   42   30   15   9    9    15   31   40    191 
 ------------------------------------------------------------------------
 Alpha orbitals:
  - Frozen occupied        2    1    0    0    0    0    1    2     6   
  - Active occupied        4    2    1    1    0    1    3    3     15  
  - Active virtual         36   27   14   8    9    14   27   35    170 
  - Frozen virtual         0    0    0    0    0    0    0    0     0   
 ------------------------------------------------------------------------
 Beta orbitals:
  - Frozen occupied        2    1    0    0    0    0    1    2     6   
  - Active occupied        4    2    1    1    0    1    3    3     15  
  - Active virtual         36   27   14   8    9    14   27   35    170 
  - Frozen virtual         0    0    0    0    0    0    0    0     0   
 ------------------------------------------------------------------------

 Import integrals:   CPU 0.00 s  wall 0.00 s

 Import integrals:   CPU 95.48 s  wall 88.54 s

 MP2 amplitudes:   CPU 10.55 s  wall 10.71 s

           CCSD T amplitudes will be solved using DIIS.

           Start     Size      MaxIter   EConv     TConv     
           3         7         100       1.00e-06  1.00e-04  
 ------------------------------------------------------------------------------
           Energy (a.u.)   Ediff      Tdiff       Comment
 ------------------------------------------------------------------------------
          -231.58431095                           
     1    -231.58855454   4.24e-03   9.14e-01     
     2    -231.61390690   2.54e-02   1.24e-01     
     3    -231.61484306   9.36e-04   4.25e-02     
     4    -231.61734133   2.50e-03   1.33e-02     Switched to DIIS steps.
     5    -231.61824241   9.01e-04   1.11e-02     
     6    -231.61825128   8.88e-06   2.18e-03     
     7    -231.61824215   9.13e-06   6.65e-04     
     8    -231.61824181   3.35e-07   1.56e-04     
     9    -231.61824166   1.54e-07   4.00e-05     
 ------------------------------------------------------------------------------
          -231.61824166                           CCSD T converged.

 SCF energy                 = -230.75644576
 MP2 energy                 = -231.58431095
 CCSD correlation energy     =   -0.86179590
 CCSD total energy           = -231.61824166

 CCSD  T1^2 = 0.0064  T2^2 = 0.3407  Leading amplitudes:

 Amplitude    Orbitals with energies
 -0.0217       1 (B2g) A                 ->    7 (B2g) A                  
              -0.3371                          0.7850                     
 -0.0217       1 (B2g) B                 ->    7 (B2g) B                  
              -0.3371                          0.7850                     
 -0.0217       1 (B3g) A                 ->    4 (B3g) A                  
              -0.3371                          0.7850                     
 -0.0217       1 (B3g) B                 ->    4 (B3g) B                  
              -0.3371                          0.7850                     

 Amplitude    Orbitals with energies
 -0.0672       1 (B2g) A     1 (B2g) B   ->    4 (B1u) A     4 (B1u) B    
              -0.3371       -0.3371            0.1142        0.1142       
  0.0672       1 (B2g) A     1 (B2g) B   ->    4 (B1u) B     4 (B1u) A    
              -0.3371       -0.3371            0.1142        0.1142       
  0.0672       1 (B2g) B     1 (B2g) A   ->    4 (B1u) A     4 (B1u) B    
              -0.3371       -0.3371            0.1142        0.1142       
 -0.0672       1 (B2g) B     1 (B2g) A   ->    4 (B1u) B     4 (B1u) A    
              -0.3371       -0.3371            0.1142        0.1142       
 -0.0672       1 (B3g) A     1 (B3g) B   ->    2 (Au) A      2 (Au) B     
              -0.3371       -0.3371            0.1142        0.1142       
  0.0672       1 (B3g) A     1 (B3g) B   ->    2 (Au) B      2 (Au) A     
              -0.3371       -0.3371            0.1142        0.1142       
  0.0672       1 (B3g) B     1 (B3g) A   ->    2 (Au) A      2 (Au) B     
              -0.3371       -0.3371            0.1142        0.1142       
 -0.0672       1 (B3g) B     1 (B3g) A   ->    2 (Au) B      2 (Au) A     
              -0.3371       -0.3371            0.1142        0.1142       

 Computing CCSD intermediates for later calculations
 Finished.

           CCSD Lambda amplitudes will be solved using DIIS.
           Start     Size      MaxIter   EConv     LConv     
           3         7         100       1.00e-06  1.00e-04  
 ------------------------------------------------------------------------------
            Enorm      Ldiff       Comment
 ------------------------------------------------------------------------------
     1     5.31e-02   4.36e-02     
     2     8.79e-03   5.94e-04     
     3     3.01e-03   1.80e-03     
     4     1.12e-03   2.46e-04     Switched to DIIS steps.
     5     3.17e-04   3.07e-04     
     6     9.96e-05   6.25e-05     
     7     3.16e-05   1.71e-05     
     8     8.46e-06   4.79e-06     
     9     2.65e-06   8.99e-07     
    10     9.00e-07   2.20e-07     
 ------------------------------------------------------------------------------
                                   CCSD Lambda converged.

 CCSD calculation:   CPU 444.75 s  wall 438.95 s

        Solving for CVS-EOMEE-CCSD B1u singlet states.

        CVS-EOMEE-CCSD/MP2 right amplitudes will be solved using Davidson.
        Amplitudes will be solved using standard  algorithm.
     Hard-coded thresholds: 
     LinDepThresh=1.00e-15  NormThresh=1.00e-06  ReorthogonThresh=1.00e-02

      Roots     MaxVec    MaxIter   Precond   Conv      Shift    
      5         120       60        1         1.00e-05  0.00e+00  
 ------------------------------------------------------------------------------
      Iter ConvRoots NVecs ResNorm Current eigenvalues (eV)
 ------------------------------------------------------------------------------
      0    0      5     1.90e+00   303.5432   303.5892   304.2596   304.3306   304.3513   
      1    0      10    1.18e+00   300.5939   300.6450   301.2956   301.3653   301.3859   
      2    0      15    6.66e-02   289.9934   290.0520   290.6355   290.6976   290.7086   
      3    0      20    3.68e-03   289.4296   289.4862   290.0855   290.1440   290.1521   
      4    0      25    3.19e-03   289.3860   289.4422   290.0550   290.1128   290.1203   
      5    0      30    2.27e-03   289.2980   289.3550   290.0221   290.0789   290.0854   
      6    0      35    5.44e-03   289.1491   289.2083   289.9649   290.0184   290.0265   
      7    0      40    9.16e-03   288.9685   289.0307   289.8345   289.8878   289.9918   
      8    0      45    2.97e-02   288.4838   288.5518   289.4939   289.5534   289.9713   
      9    0      50    2.01e-02   286.8503   286.8807   289.2568   289.3121   289.9613   
      10   0      55    3.27e-03   286.3878   286.4011   289.2210   289.2757   289.9502   
Found complex roots...
      11   0      60    1.21e-02   286.3294   286.3407   289.2139   289.2693   289.2701   
      12   0      65    3.54e-03   286.3150   286.3251   288.7960   289.2138   289.2682   
      13   0      70    3.05e-03   286.3126   286.3226   288.4384   289.2139   289.2684   
      14   0      75    3.20e-03   286.3102   286.3201   288.1338   289.2135   289.2681   
      15   4      80    6.25e-04   286.3094*  286.3193*  287.9260   289.2130*  289.2675*  
      16   4      81    1.23e-04   286.3094*  286.3193*  287.8869   289.2130*  289.2675*  
      17   4      82    3.80e-05   286.3094*  286.3193*  287.8912   289.2130*  289.2675*  
      18   4      83    2.50e-05   286.3094*  286.3193*  287.8805   289.2130*  289.2675*  
      19   4      84    1.27e-05   286.3094*  286.3193*  287.8863   289.2130*  289.2675*  
      20   5      85    7.35e-06   286.3094*  286.3193*  287.8834*  289.2130*  289.2675*  

     Davidson procedure converged

 EOMEE transition 1/B1u
 Total energy = -221.09656586 a.u.  Excitation energy = 286.3094 eV.
 R0^2 = 0.0000  R1^2 = 0.8342  R2_CCVV^2 = 0.0013  R2_COVV^2 = 0.0822  Res^2 = 7.02e-06
 Conv-d = yes

 Amplitude    Transitions between orbitals
  0.3850       1 (Ag) A                  ->    4 (B1u) A                  
  0.3850       1 (Ag) B                  ->    4 (B1u) B                  
 -0.2826       1 (B1g) A                 ->    2 (Au) A                   
 -0.2826       1 (B1g) B                 ->    2 (Au) B                   
  0.2826       2 (Ag) A                  ->    4 (B1u) A                  
  0.2826       2 (Ag) B                  ->    4 (B1u) B                  
  0.1718       1 (B3u) A                 ->    6 (B2g) A                  
  0.1718       1 (B3u) B                 ->    6 (B2g) B                  
  0.1559       1 (Ag) A                  ->    6 (B1u) A                  
  0.1559       1 (Ag) B                  ->    6 (B1u) B                  
 -0.1133       1 (B1g) A                 ->    3 (Au) A                   
 -0.1133       1 (B1g) B                 ->    3 (Au) B                   
  0.1133       2 (Ag) A                  ->    6 (B1u) A                  
  0.1133       2 (Ag) B                  ->    6 (B1u) B                  

              Summary of significant orbitals:

               Number  Type             Irrep      Energy
               1       Occ  Alpha       1 (Ag)    -11.2383
               4       Occ  Alpha       2 (Ag)    -11.2365
               5       Occ  Alpha       1 (B1g)    -11.2365
               2       Occ  Alpha       1 (B3u)    -11.2377
               1       Occ  Beta        1 (Ag)    -11.2383
               4       Occ  Beta        2 (Ag)    -11.2365
               5       Occ  Beta        1 (B1g)    -11.2365
               2       Occ  Beta        1 (B3u)    -11.2377
               72      Vir  Alpha       6 (B2g)      0.3744
               46      Vir  Alpha       2 (Au)      0.1142
               60      Vir  Alpha       3 (Au)      0.2392
               45      Vir  Alpha       4 (B1u)      0.1142
               59      Vir  Alpha       6 (B1u)      0.2392
               72      Vir  Beta        6 (B2g)      0.3744
               46      Vir  Beta        2 (Au)      0.1142
               60      Vir  Beta        3 (Au)      0.2392
               45      Vir  Beta        4 (B1u)      0.1142
               59      Vir  Beta        6 (B1u)      0.2392


 EOMEE transition 2/B1u
 Total energy = -221.09620147 a.u.  Excitation energy = 286.3193 eV.
 R0^2 = 0.0000  R1^2 = 0.8339  R2_CCVV^2 = 0.0013  R2_COVV^2 = 0.0824  Res^2 = 7.98e-06
 Conv-d = yes

 Amplitude    Transitions between orbitals
 -0.3932       2 (Ag) A                  ->    4 (B1u) A                  
 -0.3932       2 (Ag) B                  ->    4 (B1u) B                  
 -0.3932       1 (B1g) A                 ->    2 (Au) A                   
 -0.3932       1 (B1g) B                 ->    2 (Au) B                   
  0.1711       2 (B3u) A                 ->    6 (B2g) A                  
  0.1711       2 (B3u) B                 ->    6 (B2g) B                  
 -0.1574       2 (Ag) A                  ->    6 (B1u) A                  
 -0.1574       2 (Ag) B                  ->    6 (B1u) B                  
 -0.1574       1 (B1g) A                 ->    3 (Au) A                   
 -0.1574       1 (B1g) B                 ->    3 (Au) B                   

              Summary of significant orbitals:

               Number  Type             Irrep      Energy
               4       Occ  Alpha       2 (Ag)    -11.2365
               5       Occ  Alpha       1 (B1g)    -11.2365
               6       Occ  Alpha       2 (B3u)    -11.2358
               4       Occ  Beta        2 (Ag)    -11.2365
               5       Occ  Beta        1 (B1g)    -11.2365
               6       Occ  Beta        2 (B3u)    -11.2358
               72      Vir  Alpha       6 (B2g)      0.3744
               46      Vir  Alpha       2 (Au)      0.1142
               60      Vir  Alpha       3 (Au)      0.2392
               45      Vir  Alpha       4 (B1u)      0.1142
               59      Vir  Alpha       6 (B1u)      0.2392
               72      Vir  Beta        6 (B2g)      0.3744
               46      Vir  Beta        2 (Au)      0.1142
               60      Vir  Beta        3 (Au)      0.2392
               45      Vir  Beta        4 (B1u)      0.1142
               59      Vir  Beta        6 (B1u)      0.2392


 EOMEE transition 3/B1u
 Total energy = -221.03872050 a.u.  Excitation energy = 287.8834 eV.
 R0^2 = 0.0000  R1^2 = 0.7942  R2_CCVV^2 = 0.0012  R2_COVV^2 = 0.1023  Res^2 = 5.18e-06
 Conv-d = yes

 Amplitude    Transitions between orbitals
 -0.4248       1 (Ag) A                  ->    4 (B1u) A                  
 -0.4248       1 (Ag) B                  ->    4 (B1u) B                  
  0.2916       2 (Ag) A                  ->    4 (B1u) A                  
  0.2916       2 (Ag) B                  ->    4 (B1u) B                  
 -0.2916       1 (B1g) A                 ->    2 (Au) A                   
 -0.2916       1 (B1g) B                 ->    2 (Au) B                   
 -0.1309       1 (Ag) A                  ->    6 (B1u) A                  
 -0.1309       1 (Ag) B                  ->    6 (B1u) B                  

              Summary of significant orbitals:

               Number  Type             Irrep      Energy
               1       Occ  Alpha       1 (Ag)    -11.2383
               4       Occ  Alpha       2 (Ag)    -11.2365
               5       Occ  Alpha       1 (B1g)    -11.2365
               1       Occ  Beta        1 (Ag)    -11.2383
               4       Occ  Beta        2 (Ag)    -11.2365
               5       Occ  Beta        1 (B1g)    -11.2365
               46      Vir  Alpha       2 (Au)      0.1142
               45      Vir  Alpha       4 (B1u)      0.1142
               59      Vir  Alpha       6 (B1u)      0.2392
               46      Vir  Beta        2 (Au)      0.1142
               45      Vir  Beta        4 (B1u)      0.1142
               59      Vir  Beta        6 (B1u)      0.2392


 EOMEE transition 4/B1u
 Total energy = -220.98985875 a.u.  Excitation energy = 289.2130 eV.
 R0^2 = 0.0000  R1^2 = 0.8006  R2_CCVV^2 = 0.0011  R2_COVV^2 = 0.0991  Res^2 = 7.41e-06
 Conv-d = yes

 Amplitude    Transitions between orbitals
 -0.5529       2 (Ag) A                  ->    2 (B1u) A                  
 -0.5529       2 (Ag) B                  ->    2 (B1u) B                  
 -0.1987       2 (Ag) A                  ->    5 (B1u) A                  
 -0.1987       2 (Ag) B                  ->    5 (B1u) B                  
 -0.1426       2 (B3u) A                 ->    2 (B2g) A                  
 -0.1426       2 (B3u) B                 ->    2 (B2g) B                  

              Summary of significant orbitals:

               Number  Type             Irrep      Energy
               4       Occ  Alpha       2 (Ag)    -11.2365
               6       Occ  Alpha       2 (B3u)    -11.2358
               4       Occ  Beta        2 (Ag)    -11.2365
               6       Occ  Beta        2 (B3u)    -11.2358
               28      Vir  Alpha       2 (B2g)      0.0440
               27      Vir  Alpha       2 (B1u)      0.0344
               48      Vir  Alpha       5 (B1u)      0.1722
               28      Vir  Beta        2 (B2g)      0.0440
               27      Vir  Beta        2 (B1u)      0.0344
               48      Vir  Beta        5 (B1u)      0.1722


 EOMEE transition 5/B1u
 Total energy = -220.98785777 a.u.  Excitation energy = 289.2675 eV.
 R0^2 = 0.0000  R1^2 = 0.8005  R2_CCVV^2 = 0.0011  R2_COVV^2 = 0.0992  Res^2 = 9.15e-06
 Conv-d = yes

 Amplitude    Transitions between orbitals
  0.5502       1 (Ag) A                  ->    2 (B1u) A                  
  0.5502       1 (Ag) B                  ->    2 (B1u) B                  
  0.1982       1 (Ag) A                  ->    5 (B1u) A                  
  0.1982       1 (Ag) B                  ->    5 (B1u) B                  
 -0.1415       1 (B3u) A                 ->    2 (B2g) A                  
 -0.1415       1 (B3u) B                 ->    2 (B2g) B                  
  0.1415       1 (B2u) A                 ->    2 (B3g) A                  
  0.1415       1 (B2u) B                 ->    2 (B3g) B                  

              Summary of significant orbitals:

               Number  Type             Irrep      Energy
               1       Occ  Alpha       1 (Ag)    -11.2383
               3       Occ  Alpha       1 (B2u)    -11.2377
               2       Occ  Alpha       1 (B3u)    -11.2377
               1       Occ  Beta        1 (Ag)    -11.2383
               3       Occ  Beta        1 (B2u)    -11.2377
               2       Occ  Beta        1 (B3u)    -11.2377
               28      Vir  Alpha       2 (B2g)      0.0440
               29      Vir  Alpha       2 (B3g)      0.0440
               27      Vir  Alpha       2 (B1u)      0.0344
               48      Vir  Alpha       5 (B1u)      0.1722
               28      Vir  Beta        2 (B2g)      0.0440
               29      Vir  Beta        2 (B3g)      0.0440
               27      Vir  Beta        2 (B1u)      0.0344
               48      Vir  Beta        5 (B1u)      0.1722


      CVS-EOM-CCSD/MP2 left amplitudes will be solved using Davidson.
        Amplitudes will be solved using MOM  algorithm.
     Hard-coded thresholds: 
     LinDepThresh=1.00e-15  NormThresh=1.00e-06  ReorthogonThresh=1.00e-02

      Roots     MaxVec    MaxIter   Precond   Conv      Shift    
      5         120       60        1         1.00e-05  0.00e+00  
 ------------------------------------------------------------------------------
      Iter ConvRoots NVecs ResNorm Current eigenvalues (eV)
 ------------------------------------------------------------------------------
      0    0      5     2.57e-02   286.3094   286.3193   287.8834   289.2130   289.2675   
      1    0      10    8.79e-03   286.3096   286.3196   287.8840   289.2130   289.2674   
      2    0      15    4.54e-04   286.3098   286.3197   287.8840   289.2129   289.2674   
      3    0      20    8.53e-05   286.3098   286.3198   287.8839   289.2129   289.2673   
      4    2      25    1.58e-05   286.3098   286.3198   287.8839   289.2128*  289.2673*  
      5    5      28    7.47e-06   286.3098*  286.3198*  287.8839*  289.2128*  289.2673*  

     Davidson procedure converged

        Solving for CVS-EOMEE-CCSD B2u singlet states.

        CVS-EOMEE-CCSD/MP2 right amplitudes will be solved using Davidson.
        Amplitudes will be solved using standard  algorithm.
     Hard-coded thresholds: 
     LinDepThresh=1.00e-15  NormThresh=1.00e-06  ReorthogonThresh=1.00e-02

      Roots     MaxVec    MaxIter   Precond   Conv      Shift    
      5         120       60        1         1.00e-05  0.00e+00  
 ------------------------------------------------------------------------------
      Iter ConvRoots NVecs ResNorm Current eigenvalues (eV)
 ------------------------------------------------------------------------------
      0    0      5     1.90e+00   303.1991   303.7921   303.8299   303.9738   304.3154   
      1    0      10    1.18e+00   300.2513   300.8294   300.8618   301.0004   301.3430   
      2    0      15    7.26e-02   289.6711   290.1765   290.1959   290.2933   290.6628   
      3    0      20    4.89e-03   289.0190   289.5890   289.6043   289.6957   290.0854   
      4    0      25    5.02e-03   288.9367   289.5450   289.5599   289.6519   290.0496   
      5    0      30    5.62e-03   288.6644   289.4555   289.4755   289.5721   289.9973   
      6    0      35    7.31e-03   288.2890   289.2858   289.3083   289.4172   289.8954   
      7    0      40    2.63e-03   288.1934   289.1882   289.2091   289.3047   289.8041   
      8    0      45    4.59e-04   288.1669   289.1595   289.1708   289.2704   289.7727   
      9    0      50    2.36e-04   288.1629   289.1574   289.1678   289.2633   289.7697   
      10   0      55    4.00e-04   288.1605   289.1540   289.1606   289.2474   289.7653   
      11   0      60    4.59e-04   288.1574   289.1477   289.1486   289.2190   289.7607   
      12   0      65    1.97e-04   288.1573   289.1433   289.1471   289.2057   289.7585   
      13   1      70    7.83e-05   288.1572*  289.1394   289.1441   289.1958   289.7563   
      14   1      74    6.03e-05   288.1571*  289.1367   289.1427   289.1920   289.7550   
      15   1      78    6.82e-05   288.1571*  289.1361   289.1415   289.1891   289.7544   
      16   1      82    4.04e-05   288.1571*  289.1344   289.1409   289.1862   289.7539   
Found complex roots...
      17   1      86    2.19e-04   288.1570*  289.1344   289.1408   289.1859   289.7351   
      18   3      90    1.24e-04   288.1570*  289.1339*  289.1404*  289.1850   289.7326   
      19   3      92    1.10e-04   288.1570*  289.1339*  289.1400*  289.1847   289.7137   
      20   4      94    4.71e-05   288.1570*  289.1339*  289.1399*  289.1844*  289.7086   
      21   4      95    3.52e-05   288.1570*  289.1339*  289.1399*  289.1844*  289.7075   
      22   4      96    2.03e-05   288.1570*  289.1339*  289.1399*  289.1844*  289.7025   
      23   4      97    9.14e-06   288.1570*  289.1339*  289.1399*  289.1844*  289.7013   
      24   4      98    6.30e-06   288.1570*  289.1339*  289.1399*  289.1844*  289.7015   
      25   5      99    4.64e-06   288.1570*  289.1339*  289.1399*  289.1844*  289.7011*  

     Davidson procedure converged

 EOMEE transition 1/B2u
 Total energy = -221.02866726 a.u.  Excitation energy = 288.1570 eV.
 R0^2 = 0.0000  R1^2 = 0.8105  R2_CCVV^2 = 0.0012  R2_COVV^2 = 0.0942  Res^2 = 3.14e-06
 Conv-d = yes

 Amplitude    Transitions between orbitals
 -0.3553       1 (B2u) A                 ->    7 (Ag) A                   
 -0.3553       1 (B2u) B                 ->    7 (Ag) B                   
  0.2753       1 (B2u) A                 ->    11 (Ag) A                  
  0.2753       1 (B2u) B                 ->    11 (Ag) B                  
  0.1566       1 (Ag) A                  ->    5 (B2u) A                  
  0.1566       1 (Ag) B                  ->    5 (B2u) B                  
  0.1358       1 (Ag) A                  ->    8 (B2u) A                  
  0.1358       1 (Ag) B                  ->    8 (B2u) B                  
  0.1344       1 (B2u) A                 ->    9 (Ag) A                   
  0.1344       1 (B2u) B                 ->    9 (Ag) B                   
  0.1243       1 (B2u) A                 ->    15 (Ag) A                  
  0.1243       1 (B2u) B                 ->    15 (Ag) B                  
 -0.1183       2 (Ag) A                  ->    5 (B2u) A                  
 -0.1183       2 (Ag) B                  ->    5 (B2u) B                  
 -0.1183       1 (B1g) A                 ->    6 (B3u) A                  
 -0.1183       1 (B1g) B                 ->    6 (B3u) B                  
  0.1039       1 (Ag) A                  ->    7 (B2u) A                  
  0.1039       1 (Ag) B                  ->    7 (B2u) B                  
 -0.1015       2 (Ag) A                  ->    8 (B2u) A                  
 -0.1015       2 (Ag) B                  ->    8 (B2u) B                  
  0.1015       1 (B1g) A                 ->    9 (B3u) A                  
  0.1015       1 (B1g) B                 ->    9 (B3u) B                  

              Summary of significant orbitals:

               Number  Type             Irrep      Energy
               1       Occ  Alpha       1 (Ag)    -11.2383
               4       Occ  Alpha       2 (Ag)    -11.2365
               5       Occ  Alpha       1 (B1g)    -11.2365
               3       Occ  Alpha       1 (B2u)    -11.2377
               1       Occ  Beta        1 (Ag)    -11.2383
               4       Occ  Beta        2 (Ag)    -11.2365
               5       Occ  Beta        1 (B1g)    -11.2365
               3       Occ  Beta        1 (B2u)    -11.2377
               22      Vir  Alpha       7 (Ag)      0.0169
               34      Vir  Alpha       9 (Ag)      0.0572
               40      Vir  Alpha      11 (Ag)      0.0843
               58      Vir  Alpha      15 (Ag)      0.2374
               24      Vir  Alpha       5 (B2u)      0.0216
               36      Vir  Alpha       7 (B2u)      0.0667
               42      Vir  Alpha       8 (B2u)      0.0928
               23      Vir  Alpha       6 (B3u)      0.0216
               41      Vir  Alpha       9 (B3u)      0.0928
               22      Vir  Beta        7 (Ag)      0.0169
               34      Vir  Beta        9 (Ag)      0.0572
               40      Vir  Beta       11 (Ag)      0.0843
               58      Vir  Beta       15 (Ag)      0.2374
               24      Vir  Beta        5 (B2u)      0.0216
               36      Vir  Beta        7 (B2u)      0.0667
               42      Vir  Beta        8 (B2u)      0.0928
               23      Vir  Beta        6 (B3u)      0.0216
               41      Vir  Beta        9 (B3u)      0.0928


 EOMEE transition 2/B2u
 Total energy = -220.99276658 a.u.  Excitation energy = 289.1339 eV.
 R0^2 = 0.0000  R1^2 = 0.7986  R2_CCVV^2 = 0.0011  R2_COVV^2 = 0.1001  Res^2 = 9.38e-06
 Conv-d = yes

 Amplitude    Transitions between orbitals
 -0.3367       2 (Ag) A                  ->    5 (B2u) A                  
 -0.3367       2 (Ag) B                  ->    5 (B2u) B                  
  0.3367       1 (B1g) A                 ->    6 (B3u) A                  
  0.3367       1 (B1g) B                 ->    6 (B3u) B                  
 -0.1590       2 (Ag) A                  ->    7 (B2u) A                  
 -0.1590       2 (Ag) B                  ->    7 (B2u) B                  
 -0.1590       1 (B1g) A                 ->    8 (B3u) A                  
 -0.1590       1 (B1g) B                 ->    8 (B3u) B                  
 -0.1582       2 (Ag) A                  ->    8 (B2u) A                  
 -0.1582       2 (Ag) B                  ->    8 (B2u) B                  
 -0.1582       1 (B1g) A                 ->    9 (B3u) A                  
 -0.1582       1 (B1g) B                 ->    9 (B3u) B                  
 -0.1220       1 (B3u) A                 ->    4 (B1g) A                  
 -0.1220       1 (B3u) B                 ->    4 (B1g) B                  
 -0.1220       1 (B2u) A                 ->    8 (Ag) A                   
 -0.1220       1 (B2u) B                 ->    8 (Ag) B                   

              Summary of significant orbitals:

               Number  Type             Irrep      Energy
               4       Occ  Alpha       2 (Ag)    -11.2365
               5       Occ  Alpha       1 (B1g)    -11.2365
               3       Occ  Alpha       1 (B2u)    -11.2377
               2       Occ  Alpha       1 (B3u)    -11.2377
               4       Occ  Beta        2 (Ag)    -11.2365
               5       Occ  Beta        1 (B1g)    -11.2365
               3       Occ  Beta        1 (B2u)    -11.2377
               2       Occ  Beta        1 (B3u)    -11.2377
               25      Vir  Alpha       8 (Ag)      0.0335
               26      Vir  Alpha       4 (B1g)      0.0335
               24      Vir  Alpha       5 (B2u)      0.0216
               36      Vir  Alpha       7 (B2u)      0.0667
               42      Vir  Alpha       8 (B2u)      0.0928
               23      Vir  Alpha       6 (B3u)      0.0216
               35      Vir  Alpha       8 (B3u)      0.0667
               41      Vir  Alpha       9 (B3u)      0.0928
               25      Vir  Beta        8 (Ag)      0.0335
               26      Vir  Beta        4 (B1g)      0.0335
               24      Vir  Beta        5 (B2u)      0.0216
               36      Vir  Beta        7 (B2u)      0.0667
               42      Vir  Beta        8 (B2u)      0.0928
               23      Vir  Beta        6 (B3u)      0.0216
               35      Vir  Beta        8 (B3u)      0.0667
               41      Vir  Beta        9 (B3u)      0.0928


 EOMEE transition 3/B2u
 Total energy = -220.99254446 a.u.  Excitation energy = 289.1399 eV.
 R0^2 = 0.0000  R1^2 = 0.7985  R2_CCVV^2 = 0.0011  R2_COVV^2 = 0.1002  Res^2 = 7.04e-07
 Conv-d = yes

 Amplitude    Transitions between orbitals
 -0.2786       1 (B1g) A                 ->    6 (B3u) A                  
 -0.2786       1 (B1g) B                 ->    6 (B3u) B                  
 -0.2786       2 (Ag) A                  ->    5 (B2u) A                  
 -0.2786       2 (Ag) B                  ->    5 (B2u) B                  
  0.1766       2 (B3u) A                 ->    4 (B1g) A                  
  0.1766       2 (B3u) B                 ->    4 (B1g) B                  
 -0.1677       1 (Ag) A                  ->    5 (B2u) A                  
 -0.1677       1 (Ag) B                  ->    5 (B2u) B                  
  0.1675       1 (B2u) A                 ->    7 (Ag) A                   
  0.1675       1 (B2u) B                 ->    7 (Ag) B                   
 -0.1484       1 (B2u) A                 ->    9 (Ag) A                   
 -0.1484       1 (B2u) B                 ->    9 (Ag) B                   
  0.1388       1 (B1g) A                 ->    9 (B3u) A                  
  0.1388       1 (B1g) B                 ->    9 (B3u) B                  
 -0.1388       2 (Ag) A                  ->    8 (B2u) A                  
 -0.1388       2 (Ag) B                  ->    8 (B2u) B                  
 -0.1367       2 (B3u) A                 ->    6 (B1g) A                  
 -0.1367       2 (B3u) B                 ->    6 (B1g) B                  
  0.1214       1 (B1g) A                 ->    8 (B3u) A                  
  0.1214       1 (B1g) B                 ->    8 (B3u) B                  
 -0.1214       2 (Ag) A                  ->    7 (B2u) A                  
 -0.1214       2 (Ag) B                  ->    7 (B2u) B                  

              Summary of significant orbitals:

               Number  Type             Irrep      Energy
               1       Occ  Alpha       1 (Ag)    -11.2383
               4       Occ  Alpha       2 (Ag)    -11.2365
               5       Occ  Alpha       1 (B1g)    -11.2365
               3       Occ  Alpha       1 (B2u)    -11.2377
               6       Occ  Alpha       2 (B3u)    -11.2358
               1       Occ  Beta        1 (Ag)    -11.2383
               4       Occ  Beta        2 (Ag)    -11.2365
               5       Occ  Beta        1 (B1g)    -11.2365
               3       Occ  Beta        1 (B2u)    -11.2377
               6       Occ  Beta        2 (B3u)    -11.2358
               22      Vir  Alpha       7 (Ag)      0.0169
               34      Vir  Alpha       9 (Ag)      0.0572
               26      Vir  Alpha       4 (B1g)      0.0335
               44      Vir  Alpha       6 (B1g)      0.1027
               24      Vir  Alpha       5 (B2u)      0.0216
               36      Vir  Alpha       7 (B2u)      0.0667
               42      Vir  Alpha       8 (B2u)      0.0928
               23      Vir  Alpha       6 (B3u)      0.0216
               35      Vir  Alpha       8 (B3u)      0.0667
               41      Vir  Alpha       9 (B3u)      0.0928
               22      Vir  Beta        7 (Ag)      0.0169
               34      Vir  Beta        9 (Ag)      0.0572
               26      Vir  Beta        4 (B1g)      0.0335
               44      Vir  Beta        6 (B1g)      0.1027
               24      Vir  Beta        5 (B2u)      0.0216
               36      Vir  Beta        7 (B2u)      0.0667
               42      Vir  Beta        8 (B2u)      0.0928
               23      Vir  Beta        6 (B3u)      0.0216
               35      Vir  Beta        8 (B3u)      0.0667
               41      Vir  Beta        9 (B3u)      0.0928


 EOMEE transition 4/B2u
 Total energy = -220.99090955 a.u.  Excitation energy = 289.1844 eV.
 R0^2 = 0.0000  R1^2 = 0.7987  R2_CCVV^2 = 0.0011  R2_COVV^2 = 0.1001  Res^2 = 2.42e-06
 Conv-d = yes

 Amplitude    Transitions between orbitals
 -0.3547       1 (Ag) A                  ->    5 (B2u) A                  
 -0.3547       1 (Ag) B                  ->    5 (B2u) B                  
 -0.2571       1 (B2u) A                 ->    7 (Ag) A                   
 -0.2571       1 (B2u) B                 ->    7 (Ag) B                   
  0.2483       1 (B2u) A                 ->    9 (Ag) A                   
  0.2483       1 (B2u) B                 ->    9 (Ag) B                   
 -0.1886       1 (Ag) A                  ->    8 (B2u) A                  
 -0.1886       1 (Ag) B                  ->    8 (B2u) B                  
 -0.1491       1 (Ag) A                  ->    7 (B2u) A                  
 -0.1491       1 (Ag) B                  ->    7 (B2u) B                  
  0.1183       1 (B2u) A                 ->    8 (Ag) A                   
  0.1183       1 (B2u) B                 ->    8 (Ag) B                   
 -0.1183       1 (B3u) A                 ->    4 (B1g) A                  
 -0.1183       1 (B3u) B                 ->    4 (B1g) B                  
  0.1162       1 (B2u) A                 ->    13 (Ag) A                  
  0.1162       1 (B2u) B                 ->    13 (Ag) B                  

              Summary of significant orbitals:

               Number  Type             Irrep      Energy
               1       Occ  Alpha       1 (Ag)    -11.2383
               3       Occ  Alpha       1 (B2u)    -11.2377
               2       Occ  Alpha       1 (B3u)    -11.2377
               1       Occ  Beta        1 (Ag)    -11.2383
               3       Occ  Beta        1 (B2u)    -11.2377
               2       Occ  Beta        1 (B3u)    -11.2377
               22      Vir  Alpha       7 (Ag)      0.0169
               25      Vir  Alpha       8 (Ag)      0.0335
               34      Vir  Alpha       9 (Ag)      0.0572
               52      Vir  Alpha      13 (Ag)      0.1948
               26      Vir  Alpha       4 (B1g)      0.0335
               24      Vir  Alpha       5 (B2u)      0.0216
               36      Vir  Alpha       7 (B2u)      0.0667
               42      Vir  Alpha       8 (B2u)      0.0928
               22      Vir  Beta        7 (Ag)      0.0169
               25      Vir  Beta        8 (Ag)      0.0335
               34      Vir  Beta        9 (Ag)      0.0572
               52      Vir  Beta       13 (Ag)      0.1948
               26      Vir  Beta        4 (B1g)      0.0335
               24      Vir  Beta        5 (B2u)      0.0216
               36      Vir  Beta        7 (B2u)      0.0667
               42      Vir  Beta        8 (B2u)      0.0928


 EOMEE transition 5/B2u
 Total energy = -220.97192319 a.u.  Excitation energy = 289.7011 eV.
 R0^2 = 0.0000  R1^2 = 0.7989  R2_CCVV^2 = 0.0011  R2_COVV^2 = 0.1000  Res^2 = 7.58e-06
 Conv-d = yes

 Amplitude    Transitions between orbitals
  0.4446       1 (B2u) A                 ->    9 (Ag) A                   
  0.4446       1 (B2u) B                 ->    9 (Ag) B                   
  0.2109       1 (B2u) A                 ->    13 (Ag) A                  
  0.2109       1 (B2u) B                 ->    13 (Ag) B                  
 -0.2066       1 (B2u) A                 ->    11 (Ag) A                  
 -0.2066       1 (B2u) B                 ->    11 (Ag) B                  
  0.1890       1 (B2u) A                 ->    7 (Ag) A                   
  0.1890       1 (B2u) B                 ->    7 (Ag) B                   
  0.1173       1 (Ag) A                  ->    5 (B2u) A                  
  0.1173       1 (Ag) B                  ->    5 (B2u) B                  

              Summary of significant orbitals:

               Number  Type             Irrep      Energy
               1       Occ  Alpha       1 (Ag)    -11.2383
               3       Occ  Alpha       1 (B2u)    -11.2377
               1       Occ  Beta        1 (Ag)    -11.2383
               3       Occ  Beta        1 (B2u)    -11.2377
               22      Vir  Alpha       7 (Ag)      0.0169
               34      Vir  Alpha       9 (Ag)      0.0572
               40      Vir  Alpha      11 (Ag)      0.0843
               52      Vir  Alpha      13 (Ag)      0.1948
               24      Vir  Alpha       5 (B2u)      0.0216
               22      Vir  Beta        7 (Ag)      0.0169
               34      Vir  Beta        9 (Ag)      0.0572
               40      Vir  Beta       11 (Ag)      0.0843
               52      Vir  Beta       13 (Ag)      0.1948
               24      Vir  Beta        5 (B2u)      0.0216


      CVS-EOM-CCSD/MP2 left amplitudes will be solved using Davidson.
        Amplitudes will be solved using MOM  algorithm.
     Hard-coded thresholds: 
     LinDepThresh=1.00e-15  NormThresh=1.00e-06  ReorthogonThresh=1.00e-02

      Roots     MaxVec    MaxIter   Precond   Conv      Shift    
      5         120       60        1         1.00e-05  0.00e+00  
 ------------------------------------------------------------------------------
      Iter ConvRoots NVecs ResNorm Current eigenvalues (eV)
 ------------------------------------------------------------------------------
      0    0      5     3.04e-02   288.1570   289.1339   289.1399   289.1844   289.7011   
      1    0      10    9.75e-03   288.1569   289.1338   289.1400   289.1843   289.7011   
      2    0      15    4.68e-04   288.1569   289.1337   289.1400   289.1844   289.7011   
      3    0      20    7.34e-05   288.1568   289.1336   289.1400   289.1844   289.7010   
      4    5      25    8.16e-06   288.1568*  289.1335*  289.1400*  289.1844*  289.7010*  

     Davidson procedure converged

        Solving for CVS-EOMEE-CCSD B3u singlet states.

        CVS-EOMEE-CCSD/MP2 right amplitudes will be solved using Davidson.
        Amplitudes will be solved using standard  algorithm.
     Hard-coded thresholds: 
     LinDepThresh=1.00e-15  NormThresh=1.00e-06  ReorthogonThresh=1.00e-02

      Roots     MaxVec    MaxIter   Precond   Conv      Shift    
      5         120       60        1         1.00e-05  0.00e+00  
 ------------------------------------------------------------------------------
      Iter ConvRoots NVecs ResNorm Current eigenvalues (eV)
 ------------------------------------------------------------------------------
      0    0      5     1.90e+00   303.1712   303.2145   303.8519   303.9555   303.9908   
      1    0      10    1.19e+00   300.2169   300.2650   300.8853   300.9750   301.0145   
      2    0      15    7.50e-02   289.6212   289.6782   290.2162   290.2505   290.2976   
      3    0      20    5.34e-03   288.9713   289.0256   289.6235   289.6533   289.6993   
      4    0      25    6.13e-03   288.8901   288.9437   289.5793   289.6102   289.6557   
      5    0      30    8.14e-03   288.6214   288.6760   289.4961   289.5317   289.5776   
      6    0      35    8.48e-03   288.2474   288.2996   289.3304   289.3807   289.4269   
      7    0      40    2.75e-03   288.1505   288.2007   289.2294   289.2657   289.3121   
      8    0      45    5.24e-04   288.1227   288.1720   289.1906   289.2332   289.2785   
      9    0      50    3.68e-04   288.1176   288.1666   289.1870   289.2250   289.2706   
      10   0      55    6.60e-04   288.1145   288.1631   289.1781   289.2065   289.2522   
      11   0      60    7.28e-04   288.1101   288.1582   289.1612   289.1745   289.2210   
      12   0      65    3.12e-04   288.1099   288.1578   289.1544   289.1594   289.2065   
      13   1      70    1.14e-04   288.1098*  288.1577   289.1484   289.1486   289.1967   
      14   2      74    8.44e-05   288.1097*  288.1570*  289.1439   289.1452   289.1923   
      15   2      77    1.06e-04   288.1097*  288.1570*  289.1408   289.1438   289.1898   
      16   2      80    4.66e-05   288.1098*  288.1570*  289.1368   289.1414   289.1863   
      17   2      83    2.80e-05   288.1098*  288.1570*  289.1368   289.1413   289.1862   
      18   2      86    1.46e-05   288.1098*  288.1570*  289.1355   289.1406   289.1851   
      19   2      89    1.20e-05   288.1098*  288.1570*  289.1351   289.1401   289.1847   
      20   5      92    5.52e-06   288.1098*  288.1570*  289.1349*  289.1400*  289.1845*  

     Davidson procedure converged

 EOMEE transition 1/B3u
 Total energy = -221.03040272 a.u.  Excitation energy = 288.1097 eV.
 R0^2 = 0.0000  R1^2 = 0.8106  R2_CCVV^2 = 0.0012  R2_COVV^2 = 0.0941  Res^2 = 8.10e-06
 Conv-d = yes

 Amplitude    Transitions between orbitals
 -0.3609       2 (B3u) A                 ->    7 (Ag) A                   
 -0.3609       2 (B3u) B                 ->    7 (Ag) B                   
  0.2794       2 (B3u) A                 ->    11 (Ag) A                  
  0.2794       2 (B3u) B                 ->    11 (Ag) B                  
 -0.1590       1 (B1g) A                 ->    5 (B2u) A                  
 -0.1590       1 (B1g) B                 ->    5 (B2u) B                  
 -0.1590       2 (Ag) A                  ->    6 (B3u) A                  
 -0.1590       2 (Ag) B                  ->    6 (B3u) B                  
 -0.1377       1 (B1g) A                 ->    8 (B2u) A                  
 -0.1377       1 (B1g) B                 ->    8 (B2u) B                  
  0.1377       2 (Ag) A                  ->    9 (B3u) A                  
  0.1377       2 (Ag) B                  ->    9 (B3u) B                  
  0.1341       2 (B3u) A                 ->    9 (Ag) A                   
  0.1341       2 (B3u) B                 ->    9 (Ag) B                   
  0.1266       2 (B3u) A                 ->    15 (Ag) A                  
  0.1266       2 (B3u) B                 ->    15 (Ag) B                  
 -0.1054       1 (B1g) A                 ->    7 (B2u) A                  
 -0.1054       1 (B1g) B                 ->    7 (B2u) B                  
  0.1054       2 (Ag) A                  ->    8 (B3u) A                  
  0.1054       2 (Ag) B                  ->    8 (B3u) B                  

              Summary of significant orbitals:

               Number  Type             Irrep      Energy
               4       Occ  Alpha       2 (Ag)    -11.2365
               5       Occ  Alpha       1 (B1g)    -11.2365
               6       Occ  Alpha       2 (B3u)    -11.2358
               4       Occ  Beta        2 (Ag)    -11.2365
               5       Occ  Beta        1 (B1g)    -11.2365
               6       Occ  Beta        2 (B3u)    -11.2358
               22      Vir  Alpha       7 (Ag)      0.0169
               34      Vir  Alpha       9 (Ag)      0.0572
               40      Vir  Alpha      11 (Ag)      0.0843
               58      Vir  Alpha      15 (Ag)      0.2374
               24      Vir  Alpha       5 (B2u)      0.0216
               36      Vir  Alpha       7 (B2u)      0.0667
               42      Vir  Alpha       8 (B2u)      0.0928
               23      Vir  Alpha       6 (B3u)      0.0216
               35      Vir  Alpha       8 (B3u)      0.0667
               41      Vir  Alpha       9 (B3u)      0.0928
               22      Vir  Beta        7 (Ag)      0.0169
               34      Vir  Beta        9 (Ag)      0.0572
               40      Vir  Beta       11 (Ag)      0.0843
               58      Vir  Beta       15 (Ag)      0.2374
               24      Vir  Beta        5 (B2u)      0.0216
               36      Vir  Beta        7 (B2u)      0.0667
               42      Vir  Beta        8 (B2u)      0.0928
               23      Vir  Beta        6 (B3u)      0.0216
               35      Vir  Beta        8 (B3u)      0.0667
               41      Vir  Beta        9 (B3u)      0.0928


 EOMEE transition 2/B3u
 Total energy = -221.02866658 a.u.  Excitation energy = 288.1570 eV.
 R0^2 = 0.0000  R1^2 = 0.8104  R2_CCVV^2 = 0.0012  R2_COVV^2 = 0.0942  Res^2 = 7.83e-06
 Conv-d = yes

 Amplitude    Transitions between orbitals
  0.3555       1 (B3u) A                 ->    7 (Ag) A                   
  0.3555       1 (B3u) B                 ->    7 (Ag) B                   
 -0.2762       1 (B3u) A                 ->    11 (Ag) A                  
 -0.2762       1 (B3u) B                 ->    11 (Ag) B                  
 -0.1568       1 (Ag) A                  ->    6 (B3u) A                  
 -0.1568       1 (Ag) B                  ->    6 (B3u) B                  
  0.1365       1 (Ag) A                  ->    9 (B3u) A                  
  0.1365       1 (Ag) B                  ->    9 (B3u) B                  
 -0.1321       1 (B3u) A                 ->    9 (Ag) A                   
 -0.1321       1 (B3u) B                 ->    9 (Ag) B                   
 -0.1254       1 (B3u) A                 ->    15 (Ag) A                  
 -0.1254       1 (B3u) B                 ->    15 (Ag) B                  
 -0.1184       2 (Ag) A                  ->    6 (B3u) A                  
 -0.1184       2 (Ag) B                  ->    6 (B3u) B                  
  0.1184       1 (B1g) A                 ->    5 (B2u) A                  
  0.1184       1 (B1g) B                 ->    5 (B2u) B                  
  0.1035       1 (Ag) A                  ->    8 (B3u) A                  
  0.1035       1 (Ag) B                  ->    8 (B3u) B                  
  0.1012       2 (Ag) A                  ->    9 (B3u) A                  
  0.1012       2 (Ag) B                  ->    9 (B3u) B                  
  0.1012       1 (B1g) A                 ->    8 (B2u) A                  
  0.1012       1 (B1g) B                 ->    8 (B2u) B                  

              Summary of significant orbitals:

               Number  Type             Irrep      Energy
               1       Occ  Alpha       1 (Ag)    -11.2383
               4       Occ  Alpha       2 (Ag)    -11.2365
               5       Occ  Alpha       1 (B1g)    -11.2365
               2       Occ  Alpha       1 (B3u)    -11.2377
               1       Occ  Beta        1 (Ag)    -11.2383
               4       Occ  Beta        2 (Ag)    -11.2365
               5       Occ  Beta        1 (B1g)    -11.2365
               2       Occ  Beta        1 (B3u)    -11.2377
               22      Vir  Alpha       7 (Ag)      0.0169
               34      Vir  Alpha       9 (Ag)      0.0572
               40      Vir  Alpha      11 (Ag)      0.0843
               58      Vir  Alpha      15 (Ag)      0.2374
               24      Vir  Alpha       5 (B2u)      0.0216
               42      Vir  Alpha       8 (B2u)      0.0928
               23      Vir  Alpha       6 (B3u)      0.0216
               35      Vir  Alpha       8 (B3u)      0.0667
               41      Vir  Alpha       9 (B3u)      0.0928
               22      Vir  Beta        7 (Ag)      0.0169
               34      Vir  Beta        9 (Ag)      0.0572
               40      Vir  Beta       11 (Ag)      0.0843
               58      Vir  Beta       15 (Ag)      0.2374
               24      Vir  Beta        5 (B2u)      0.0216
               42      Vir  Beta        8 (B2u)      0.0928
               23      Vir  Beta        6 (B3u)      0.0216
               35      Vir  Beta        8 (B3u)      0.0667
               41      Vir  Beta        9 (B3u)      0.0928


 EOMEE transition 3/B3u
 Total energy = -220.99272878 a.u.  Excitation energy = 289.1349 eV.
 R0^2 = 0.0000  R1^2 = 0.7989  R2_CCVV^2 = 0.0012  R2_COVV^2 = 0.1000  Res^2 = 5.12e-06
 Conv-d = yes

 Amplitude    Transitions between orbitals
 -0.3011       2 (B3u) A                 ->    7 (Ag) A                   
 -0.3011       2 (B3u) B                 ->    7 (Ag) B                   
  0.2918       2 (B3u) A                 ->    9 (Ag) A                   
  0.2918       2 (B3u) B                 ->    9 (Ag) B                   
  0.2178       1 (B1g) A                 ->    5 (B2u) A                  
  0.2178       1 (B1g) B                 ->    5 (B2u) B                  
  0.2178       2 (Ag) A                  ->    6 (B3u) A                  
  0.2178       2 (Ag) B                  ->    6 (B3u) B                  
  0.1364       2 (B3u) A                 ->    13 (Ag) A                  
  0.1364       2 (B3u) B                 ->    13 (Ag) B                  
  0.1261       1 (B1g) A                 ->    8 (B2u) A                  
  0.1261       1 (B1g) B                 ->    8 (B2u) B                  
 -0.1261       2 (Ag) A                  ->    9 (B3u) A                  
 -0.1261       2 (Ag) B                  ->    9 (B3u) B                  
  0.1094       1 (B3u) A                 ->    8 (Ag) A                   
  0.1094       1 (B3u) B                 ->    8 (Ag) B                   
 -0.1094       1 (B2u) A                 ->    4 (B1g) A                  
 -0.1094       1 (B2u) B                 ->    4 (B1g) B                  

              Summary of significant orbitals:

               Number  Type             Irrep      Energy
               4       Occ  Alpha       2 (Ag)    -11.2365
               5       Occ  Alpha       1 (B1g)    -11.2365
               3       Occ  Alpha       1 (B2u)    -11.2377
               2       Occ  Alpha       1 (B3u)    -11.2377
               6       Occ  Alpha       2 (B3u)    -11.2358
               4       Occ  Beta        2 (Ag)    -11.2365
               5       Occ  Beta        1 (B1g)    -11.2365
               3       Occ  Beta        1 (B2u)    -11.2377
               2       Occ  Beta        1 (B3u)    -11.2377
               6       Occ  Beta        2 (B3u)    -11.2358
               22      Vir  Alpha       7 (Ag)      0.0169
               25      Vir  Alpha       8 (Ag)      0.0335
               34      Vir  Alpha       9 (Ag)      0.0572
               52      Vir  Alpha      13 (Ag)      0.1948
               26      Vir  Alpha       4 (B1g)      0.0335
               24      Vir  Alpha       5 (B2u)      0.0216
               42      Vir  Alpha       8 (B2u)      0.0928
               23      Vir  Alpha       6 (B3u)      0.0216
               41      Vir  Alpha       9 (B3u)      0.0928
               22      Vir  Beta        7 (Ag)      0.0169
               25      Vir  Beta        8 (Ag)      0.0335
               34      Vir  Beta        9 (Ag)      0.0572
               52      Vir  Beta       13 (Ag)      0.1948
               26      Vir  Beta        4 (B1g)      0.0335
               24      Vir  Beta        5 (B2u)      0.0216
               42      Vir  Beta        8 (B2u)      0.0928
               23      Vir  Beta        6 (B3u)      0.0216
               41      Vir  Beta        9 (B3u)      0.0928


 EOMEE transition 4/B3u
 Total energy = -220.99254116 a.u.  Excitation energy = 289.1400 eV.
 R0^2 = 0.0000  R1^2 = 0.7985  R2_CCVV^2 = 0.0011  R2_COVV^2 = 0.1002  Res^2 = 2.65e-06
 Conv-d = yes

 Amplitude    Transitions between orbitals
 -0.2787       2 (Ag) A                  ->    6 (B3u) A                  
 -0.2787       2 (Ag) B                  ->    6 (B3u) B                  
  0.2787       1 (B1g) A                 ->    5 (B2u) A                  
  0.2787       1 (B1g) B                 ->    5 (B2u) B                  
  0.1762       2 (B3u) A                 ->    8 (Ag) A                   
  0.1762       2 (B3u) B                 ->    8 (Ag) B                   
  0.1688       1 (Ag) A                  ->    6 (B3u) A                  
  0.1688       1 (Ag) B                  ->    6 (B3u) B                  
 -0.1671       1 (B3u) A                 ->    7 (Ag) A                   
 -0.1671       1 (B3u) B                 ->    7 (Ag) B                   
  0.1464       1 (B3u) A                 ->    9 (Ag) A                   
  0.1464       1 (B3u) B                 ->    9 (Ag) B                   
  0.1382       2 (Ag) A                  ->    9 (B3u) A                  
  0.1382       2 (Ag) B                  ->    9 (B3u) B                  
  0.1382       1 (B1g) A                 ->    8 (B2u) A                  
  0.1382       1 (B1g) B                 ->    8 (B2u) B                  
 -0.1370       2 (B3u) A                 ->    12 (Ag) A                  
 -0.1370       2 (B3u) B                 ->    12 (Ag) B                  
  0.1226       2 (Ag) A                  ->    8 (B3u) A                  
  0.1226       2 (Ag) B                  ->    8 (B3u) B                  
  0.1226       1 (B1g) A                 ->    7 (B2u) A                  
  0.1226       1 (B1g) B                 ->    7 (B2u) B                  

              Summary of significant orbitals:

               Number  Type             Irrep      Energy
               1       Occ  Alpha       1 (Ag)    -11.2383
               4       Occ  Alpha       2 (Ag)    -11.2365
               5       Occ  Alpha       1 (B1g)    -11.2365
               2       Occ  Alpha       1 (B3u)    -11.2377
               6       Occ  Alpha       2 (B3u)    -11.2358
               1       Occ  Beta        1 (Ag)    -11.2383
               4       Occ  Beta        2 (Ag)    -11.2365
               5       Occ  Beta        1 (B1g)    -11.2365
               2       Occ  Beta        1 (B3u)    -11.2377
               6       Occ  Beta        2 (B3u)    -11.2358
               22      Vir  Alpha       7 (Ag)      0.0169
               25      Vir  Alpha       8 (Ag)      0.0335
               34      Vir  Alpha       9 (Ag)      0.0572
               43      Vir  Alpha      12 (Ag)      0.1027
               24      Vir  Alpha       5 (B2u)      0.0216
               36      Vir  Alpha       7 (B2u)      0.0667
               42      Vir  Alpha       8 (B2u)      0.0928
               23      Vir  Alpha       6 (B3u)      0.0216
               35      Vir  Alpha       8 (B3u)      0.0667
               41      Vir  Alpha       9 (B3u)      0.0928
               22      Vir  Beta        7 (Ag)      0.0169
               25      Vir  Beta        8 (Ag)      0.0335
               34      Vir  Beta        9 (Ag)      0.0572
[...]

              Summary of significant orbitals:

               Number  Type             Irrep      Energy
               1       Occ  Alpha       1 (Ag)    -11.2383
               3       Occ  Alpha       1 (B2u)    -11.2377
               2       Occ  Alpha       1 (B3u)    -11.2377
               1       Occ  Beta        1 (Ag)    -11.2383
               3       Occ  Beta        1 (B2u)    -11.2377
               2       Occ  Beta        1 (B3u)    -11.2377
               22      Vir  Alpha       7 (Ag)      0.0169
               25      Vir  Alpha       8 (Ag)      0.0335
               34      Vir  Alpha       9 (Ag)      0.0572
               52      Vir  Alpha      13 (Ag)      0.1948
               26      Vir  Alpha       4 (B1g)      0.0335
               23      Vir  Alpha       6 (B3u)      0.0216
               35      Vir  Alpha       8 (B3u)      0.0667
               41      Vir  Alpha       9 (B3u)      0.0928
               22      Vir  Beta        7 (Ag)      0.0169
               25      Vir  Beta        8 (Ag)      0.0335
               34      Vir  Beta        9 (Ag)      0.0572
               52      Vir  Beta       13 (Ag)      0.1948
               26      Vir  Beta        4 (B1g)      0.0335
               23      Vir  Beta        6 (B3u)      0.0216
               35      Vir  Beta        8 (B3u)      0.0667
               41      Vir  Beta        9 (B3u)      0.0928


      CVS-EOM-CCSD/MP2 left amplitudes will be solved using Davidson.
        Amplitudes will be solved using MOM  algorithm.
     Hard-coded thresholds: 
     LinDepThresh=1.00e-15  NormThresh=1.00e-06  ReorthogonThresh=1.00e-02

      Roots     MaxVec    MaxIter   Precond   Conv      Shift    
      5         120       60        1         1.00e-05  0.00e+00  
 ------------------------------------------------------------------------------
      Iter ConvRoots NVecs ResNorm Current eigenvalues (eV)
 ------------------------------------------------------------------------------
      0    0      5     2.97e-02   288.1098   288.1570   289.1349   289.1400   289.1845   
      1    0      10    1.01e-02   288.1094   288.1569   289.1348   289.1400   289.1844   
      2    0      15    4.77e-04   288.1094   288.1570   289.1348   289.1400   289.1845   
      3    0      20    7.61e-05   288.1093   288.1569   289.1348   289.1400   289.1844   
      4    3      25    8.83e-06   288.1093   288.1569   289.1348*  289.1400*  289.1844*  
      5    5      27    6.42e-06   288.1092*  288.1569*  289.1348*  289.1400*  289.1844*  

     Davidson procedure converged

 CVS-EOMEE-CCSD calculation:   CPU 11366.91 s  wall 11418.11 s


 Start computing the transition properties

 ------------------------------------------------------------------------------
 State A: ccsd: 0/Ag
 State B: cvs_eomee_ccsd/rhfref/singlets: 1/B1u
 Transition dipole moment (a.u.):
   A->B: 0.000000 (X 0.000000, Y 0.000000, Z 0.000000)
   B->A: 0.000000 (X 0.000000, Y 0.000000, Z 0.000000)
 Oscillator strength (a.u.): 0.000000
 Norm of one-particle transition density matrix:
   A->B: 0.889215;   B->A: 0.891876
   ||gamma^AB||*||gamma^BA||: 0.793070

 ------------------------------------------------------------------------------
 State A: ccsd: 0/Ag
 State B: cvs_eomee_ccsd/rhfref/singlets: 2/B1u
 Transition dipole moment (a.u.):
   A->B: 0.207221 (X 0.000000, Y 0.000000, Z -0.207221)
   B->A: 0.210992 (X 0.000000, Y 0.000000, Z -0.210992)
 Oscillator strength (a.u.): 0.306696
 Norm of one-particle transition density matrix:
   A->B: 0.889038;   B->A: 0.891568
   ||gamma^AB||*||gamma^BA||: 0.792637

 ------------------------------------------------------------------------------
 State A: ccsd: 0/Ag
 State B: cvs_eomee_ccsd/rhfref/singlets: 3/B1u
 Transition dipole moment (a.u.):
   A->B: 0.000000 (X 0.000000, Y 0.000000, Z 0.000000)
   B->A: 0.000000 (X 0.000000, Y 0.000000, Z 0.000000)
 Oscillator strength (a.u.): 0.000000
 Norm of one-particle transition density matrix:
   A->B: 0.867309;   B->A: 0.854230
   ||gamma^AB||*||gamma^BA||: 0.740882

 ------------------------------------------------------------------------------
 State A: ccsd: 0/Ag
 State B: cvs_eomee_ccsd/rhfref/singlets: 4/B1u
 Transition dipole moment (a.u.):
   A->B: 0.000000 (X 0.000000, Y 0.000000, Z 0.000000)
   B->A: 0.000000 (X 0.000000, Y 0.000000, Z 0.000000)
 Oscillator strength (a.u.): 0.000000
 Norm of one-particle transition density matrix:
   A->B: 0.898139;   B->A: 0.856405
   ||gamma^AB||*||gamma^BA||: 0.769171

 ------------------------------------------------------------------------------
 State A: ccsd: 0/Ag
 State B: cvs_eomee_ccsd/rhfref/singlets: 5/B1u
 Transition dipole moment (a.u.):
   A->B: 0.027599 (X 0.000000, Y 0.000000, Z 0.027599)
   B->A: 0.028210 (X 0.000000, Y 0.000000, Z 0.028210)
 Oscillator strength (a.u.): 0.005518
 Norm of one-particle transition density matrix:
   A->B: 0.898071;   B->A: 0.856296
   ||gamma^AB||*||gamma^BA||: 0.769015

 ------------------------------------------------------------------------------
 State A: ccsd: 0/Ag
 State B: cvs_eomee_ccsd/rhfref/singlets: 1/B2u
 Transition dipole moment (a.u.):
   A->B: 0.056376 (X 0.000000, Y -0.056376, Z 0.000000)
   B->A: 0.055412 (X 0.000000, Y -0.055412, Z 0.000000)
 Oscillator strength (a.u.): 0.022054
 Norm of one-particle transition density matrix:
   A->B: 0.901464;   B->A: 0.865429
   ||gamma^AB||*||gamma^BA||: 0.780153

 ------------------------------------------------------------------------------
 State A: ccsd: 0/Ag
 State B: cvs_eomee_ccsd/rhfref/singlets: 2/B2u
 Transition dipole moment (a.u.):
   A->B: 0.000000 (X 0.000000, Y 0.000000, Z 0.000000)
   B->A: 0.000000 (X 0.000000, Y 0.000000, Z 0.000000)
 Oscillator strength (a.u.): 0.000000
 Norm of one-particle transition density matrix:
   A->B: 0.896513;   B->A: 0.854623
   ||gamma^AB||*||gamma^BA||: 0.766180

 ------------------------------------------------------------------------------
 State A: ccsd: 0/Ag
 State B: cvs_eomee_ccsd/rhfref/singlets: 3/B2u
 Transition dipole moment (a.u.):
   A->B: 0.016563 (X 0.000000, Y -0.016563, Z 0.000000)
   B->A: 0.016270 (X 0.000000, Y -0.016270, Z 0.000000)
 Oscillator strength (a.u.): 0.001909
 Norm of one-particle transition density matrix:
   A->B: 0.896490;   B->A: 0.854595
   ||gamma^AB||*||gamma^BA||: 0.766135

 ------------------------------------------------------------------------------
 State A: ccsd: 0/Ag
 State B: cvs_eomee_ccsd/rhfref/singlets: 4/B2u
 Transition dipole moment (a.u.):
   A->B: 0.026612 (X 0.000000, Y 0.026612, Z 0.000000)
   B->A: 0.026115 (X 0.000000, Y 0.026115, Z 0.000000)
 Oscillator strength (a.u.): 0.004924
 Norm of one-particle transition density matrix:
   A->B: 0.896574;   B->A: 0.854745
   ||gamma^AB||*||gamma^BA||: 0.766342

 ------------------------------------------------------------------------------
 State A: ccsd: 0/Ag
 State B: cvs_eomee_ccsd/rhfref/singlets: 5/B2u
 Transition dipole moment (a.u.):
   A->B: 0.015314 (X 0.000000, Y 0.015314, Z 0.000000)
   B->A: 0.014915 (X 0.000000, Y 0.014915, Z 0.000000)
 Oscillator strength (a.u.): 0.001621
 Norm of one-particle transition density matrix:
   A->B: 0.896680;   B->A: 0.854992
   ||gamma^AB||*||gamma^BA||: 0.766655

 ------------------------------------------------------------------------------
 State A: ccsd: 0/Ag
 State B: cvs_eomee_ccsd/rhfref/singlets: 1/B3u
 Transition dipole moment (a.u.):
   A->B: 0.000000 (X 0.000000, Y 0.000000, Z 0.000000)
   B->A: 0.000000 (X 0.000000, Y 0.000000, Z 0.000000)
 Oscillator strength (a.u.): 0.000000
 Norm of one-particle transition density matrix:
   A->B: 0.901505;   B->A: 0.865457
   ||gamma^AB||*||gamma^BA||: 0.780214

 ------------------------------------------------------------------------------
 State A: ccsd: 0/Ag
 State B: cvs_eomee_ccsd/rhfref/singlets: 2/B3u
 Transition dipole moment (a.u.):
   A->B: 0.056727 (X -0.056727, Y 0.000000, Z 0.000000)
   B->A: 0.055500 (X -0.055500, Y 0.000000, Z 0.000000)
 Oscillator strength (a.u.): 0.022226
 Norm of one-particle transition density matrix:
   A->B: 0.901417;   B->A: 0.865431
   ||gamma^AB||*||gamma^BA||: 0.780114

 ------------------------------------------------------------------------------
 State A: ccsd: 0/Ag
 State B: cvs_eomee_ccsd/rhfref/singlets: 3/B3u
 Transition dipole moment (a.u.):
   A->B: 0.000000 (X 0.000000, Y 0.000000, Z 0.000000)
   B->A: 0.000000 (X 0.000000, Y 0.000000, Z 0.000000)
 Oscillator strength (a.u.): 0.000000
 Norm of one-particle transition density matrix:
   A->B: 0.896716;   B->A: 0.854886
   ||gamma^AB||*||gamma^BA||: 0.766590

 ------------------------------------------------------------------------------
 State A: ccsd: 0/Ag
 State B: cvs_eomee_ccsd/rhfref/singlets: 4/B3u
 Transition dipole moment (a.u.):
   A->B: 0.016420 (X -0.016420, Y 0.000000, Z 0.000000)
   B->A: 0.016194 (X -0.016194, Y 0.000000, Z 0.000000)
 Oscillator strength (a.u.): 0.001884
 Norm of one-particle transition density matrix:
   A->B: 0.896488;   B->A: 0.854590
   ||gamma^AB||*||gamma^BA||: 0.766130

 ------------------------------------------------------------------------------
 State A: ccsd: 0/Ag
 State B: cvs_eomee_ccsd/rhfref/singlets: 5/B3u
 Transition dipole moment (a.u.):
   A->B: 0.026463 (X -0.026463, Y 0.000000, Z 0.000000)
   B->A: 0.025994 (X -0.025994, Y 0.000000, Z 0.000000)
 Oscillator strength (a.u.): 0.004874
 Norm of one-particle transition density matrix:
   A->B: 0.896572;   B->A: 0.854719
   ||gamma^AB||*||gamma^BA||: 0.766317


 All requested transition properties have been computed

 Transition Properties:   CPU 38.29 s  wall 38.74 s

 Total ccman2 time:   CPU 11970.92 s  wall 12010.52 s


 --------------------------------------------------------------
             Orbital Energies (a.u.) and Symmetries
 --------------------------------------------------------------

 Alpha MOs, Restricted
 -- Occupied --                  
-11.238 -11.238 -11.238 -11.236 -11.236 -11.236  -1.153  -1.017
  1 Ag    1 B3u   1 B2u   2 Ag    1 B1g   2 B3u   3 Ag    3 B3u                
 -1.017  -0.826  -0.826  -0.712  -0.645  -0.621  -0.590  -0.590
  2 B2u   4 Ag    2 B1g   5 Ag    4 B3u   3 B2u   5 B3u   4 B2u                
 -0.502  -0.496  -0.496  -0.337  -0.337
  1 B1u   6 Ag    3 B1g   1 B2g   1 B3g                                        
 -- Virtual --                   
  0.017   0.022   0.022   0.033   0.033   0.034   0.044   0.044
  7 Ag    6 B3u   5 B2u   8 Ag    4 B1g   2 B1u   2 B2g   2 B3g                
  0.049   0.054   0.056   0.056   0.057   0.067   0.067   0.069
  7 B3u   6 B2u   3 B1u   1 Au    9 Ag    8 B3u   7 B2u   3 B2g                
  0.070   0.070   0.084   0.093   0.093   0.103   0.103   0.114
 10 Ag    5 B1g  11 Ag    9 B3u   8 B2u  12 Ag    6 B1g   4 B1u                
  0.114   0.131   0.172   0.186   0.186   0.186   0.195   0.204
  2 Au   10 B3u   5 B1u   4 B2g   3 B3g   9 B2u  13 Ag   14 Ag                 
  0.204   0.225   0.225   0.225   0.237   0.239   0.239   0.247
  7 B1g  11 B3u  10 B2u   5 B2g  15 Ag    6 B1u   3 Au   16 Ag                 
  0.247   0.250   0.250   0.255   0.255   0.281   0.289   0.289
  8 B1g  12 B3u  11 B2u  13 B3u  12 B2u  14 B3u  17 Ag    9 B1g                
  0.303   0.339   0.374   0.413   0.426   0.426   0.455   0.455
 10 B1g  18 Ag    6 B2g  15 B3u  16 B3u  13 B2u  19 Ag   11 B1g                
  0.515   0.515   0.523   0.523   0.622   0.623   0.719   0.744
 20 Ag   12 B1g  17 B3u  14 B2u  21 Ag   15 B2u  18 B3u  19 B3u                
  0.744   0.751   0.752   0.758   0.758   0.785   0.785   0.833
 16 B2u   7 B1u  13 B1g  22 Ag   14 B1g   7 B2g   4 B3g  23 Ag                 
  0.836   0.836   0.891   0.896   0.941   0.941   0.962   0.962
  8 B1u   4 Au   20 B3u   8 B2g  21 B3u  17 B2u  24 Ag   15 B1g                
  0.997   1.017   1.017   1.068   1.068   1.109   1.131   1.138
 25 Ag   22 B3u  18 B2u  26 Ag   16 B1g  23 B3u  17 B1g  24 B3u                
  1.138   1.170   1.224   1.224   1.250   1.324   1.324   1.392
 19 B2u   9 B1u  27 Ag   18 B1g   5 B3g   9 B2g   6 B3g  10 B1u                
  1.392   1.503   1.562   1.720   1.794   1.794   1.800   1.829
  5 Au   25 B3u  28 Ag   20 B2u  26 B3u  21 B2u  29 Ag   10 B2g                
  1.848   1.848   1.912   1.912   1.936   1.936   1.993   2.056
 11 B1u   6 Au   19 B1g  30 Ag   22 B2u  27 B3u  12 B1u  11 B2g                
  2.056   2.112   2.112   2.132   2.239   2.239   2.239   2.253
  7 B3g  31 Ag   20 B1g  23 B2u   8 B3g  12 B2g  21 B1g  28 B3u                
  2.253   2.302   2.352   2.352   2.381   2.381   2.642   2.664
 24 B2u  29 B3u  22 B1g  32 Ag   13 B1u   7 Au   13 B2g   8 Au                 
  2.751   2.751   2.770   2.833   2.833   2.965   2.965   2.980
 33 Ag   23 B1g  34 Ag   30 B3u  25 B2u  26 B2u  31 B3u  32 B3u                
  3.008   3.036   3.036   3.036   3.047   3.047   3.082   3.209
 35 Ag   33 B3u  27 B2u  34 B3u  36 Ag   24 B1g  14 B1u  14 B2g                
  3.209   3.268   3.302   3.302   3.340   3.340   3.487   3.557
  9 B3g  25 B1g  15 B1u   9 Au   37 Ag   26 B1g  15 B2g  28 B2u                
  3.779   3.779   3.914   3.914   3.939   4.085   4.413   4.413
 27 B1g  38 Ag   35 B3u  29 B2u  39 Ag   36 B3u  40 Ag   28 B1g                
  4.498   4.576   4.576   5.279  24.754  25.144  25.144  25.263
 37 B3u  38 B3u  30 B2u  29 B1g  41 Ag   39 B3u  31 B2u  42 Ag                 
 25.263  25.368
 30 B1g  40 B3u                                                                

 Beta MOs, Restricted
 -- Occupied --                  
-11.238 -11.238 -11.238 -11.236 -11.236 -11.236  -1.153  -1.017
  1 Ag    1 B3u   1 B2u   2 Ag    1 B1g   2 B3u   3 Ag    3 B3u                
 -1.017  -0.826  -0.826  -0.712  -0.645  -0.621  -0.590  -0.590
  2 B2u   4 Ag    2 B1g   5 Ag    4 B3u   3 B2u   5 B3u   4 B2u                
 -0.502  -0.496  -0.496  -0.337  -0.337
  1 B1u   6 Ag    3 B1g   1 B2g   1 B3g                                        
 -- Virtual --                   
  0.017   0.022   0.022   0.033   0.033   0.034   0.044   0.044
  7 Ag    6 B3u   5 B2u   8 Ag    4 B1g   2 B1u   2 B2g   2 B3g                
  0.049   0.054   0.056   0.056   0.057   0.067   0.067   0.069
  7 B3u   6 B2u   3 B1u   1 Au    9 Ag    8 B3u   7 B2u   3 B2g                
  0.070   0.070   0.084   0.093   0.093   0.103   0.103   0.114
 10 Ag    5 B1g  11 Ag    9 B3u   8 B2u  12 Ag    6 B1g   4 B1u                
  0.114   0.131   0.172   0.186   0.186   0.186   0.195   0.204
  2 Au   10 B3u   5 B1u   4 B2g   3 B3g   9 B2u  13 Ag   14 Ag                 
  0.204   0.225   0.225   0.225   0.237   0.239   0.239   0.247
  7 B1g  11 B3u  10 B2u   5 B2g  15 Ag    6 B1u   3 Au   16 Ag                 
  0.247   0.250   0.250   0.255   0.255   0.281   0.289   0.289
  8 B1g  12 B3u  11 B2u  13 B3u  12 B2u  14 B3u  17 Ag    9 B1g                
  0.303   0.339   0.374   0.413   0.426   0.426   0.455   0.455
 10 B1g  18 Ag    6 B2g  15 B3u  16 B3u  13 B2u  19 Ag   11 B1g                
  0.515   0.515   0.523   0.523   0.622   0.623   0.719   0.744
 20 Ag   12 B1g  17 B3u  14 B2u  21 Ag   15 B2u  18 B3u  19 B3u                
  0.744   0.751   0.752   0.758   0.758   0.785   0.785   0.833
 16 B2u   7 B1u  13 B1g  22 Ag   14 B1g   7 B2g   4 B3g  23 Ag                 
  0.836   0.836   0.891   0.896   0.941   0.941   0.962   0.962
  8 B1u   4 Au   20 B3u   8 B2g  21 B3u  17 B2u  24 Ag   15 B1g                
  0.997   1.017   1.017   1.068   1.068   1.109   1.131   1.138
 25 Ag   22 B3u  18 B2u  26 Ag   16 B1g  23 B3u  17 B1g  24 B3u                
  1.138   1.170   1.224   1.224   1.250   1.324   1.324   1.392
 19 B2u   9 B1u  27 Ag   18 B1g   5 B3g   9 B2g   6 B3g  10 B1u                
  1.392   1.503   1.562   1.720   1.794   1.794   1.800   1.829
  5 Au   25 B3u  28 Ag   20 B2u  26 B3u  21 B2u  29 Ag   10 B2g                
  1.848   1.848   1.912   1.912   1.936   1.936   1.993   2.056
 11 B1u   6 Au   19 B1g  30 Ag   22 B2u  27 B3u  12 B1u  11 B2g                
  2.056   2.112   2.112   2.132   2.239   2.239   2.239   2.253
  7 B3g  31 Ag   20 B1g  23 B2u   8 B3g  12 B2g  21 B1g  28 B3u                
  2.253   2.302   2.352   2.352   2.381   2.381   2.642   2.664
 24 B2u  29 B3u  22 B1g  32 Ag   13 B1u   7 Au   13 B2g   8 Au                 
  2.751   2.751   2.770   2.833   2.833   2.965   2.965   2.980
 33 Ag   23 B1g  34 Ag   30 B3u  25 B2u  26 B2u  31 B3u  32 B3u                
  3.008   3.036   3.036   3.036   3.047   3.047   3.082   3.209
 35 Ag   33 B3u  27 B2u  34 B3u  36 Ag   24 B1g  14 B1u  14 B2g                
  3.209   3.268   3.302   3.302   3.340   3.340   3.487   3.557
  9 B3g  25 B1g  15 B1u   9 Au   37 Ag   26 B1g  15 B2g  28 B2u                
  3.779   3.779   3.914   3.914   3.939   4.085   4.413   4.413
 27 B1g  38 Ag   35 B3u  29 B2u  39 Ag   36 B3u  40 Ag   28 B1g                
  4.498   4.576   4.576   5.279  24.754  25.144  25.144  25.263
 37 B3u  38 B3u  30 B2u  29 B1g  41 Ag   39 B3u  31 B2u  42 Ag                 
 25.263  25.368
 30 B1g  40 B3u                                                                
 --------------------------------------------------------------

          Ground-State Mulliken Net Atomic Charges

     Atom                 Charge (a.u.)
  ----------------------------------------
      1 H                     0.198875
      2 C                    -0.198875
      3 C                    -0.198875
      4 H                     0.198875
      5 C                    -0.198875
      6 H                     0.198875
      7 C                    -0.198875
      8 H                     0.198875
      9 C                    -0.198875
     10 H                     0.198875
     11 C                    -0.198875
     12 H                     0.198875
  ----------------------------------------
  Sum of atomic charges =     0.000000

 -----------------------------------------------------------------
                    Cartesian Multipole Moments
 -----------------------------------------------------------------
    Charge (ESU x 10^10)
                 0.0000
    Dipole Moment (Debye)
         X       0.0000      Y      -0.0000      Z       0.0000
       Tot       0.0000
    Quadrupole Moments (Debye-Ang)
        XX     -31.9213     XY      -0.0000     YY     -31.9213
        XZ      -0.0000     YZ      -0.0000     ZZ     -41.3018
    Octopole Moments (Debye-Ang^2)
       XXX       0.0000    XXY      -0.0000    XYY       0.0000
       YYY      -0.0000    XXZ       0.0000    XYZ      -0.0000
       YYZ      -0.0000    XZZ       0.0000    YZZ      -0.0000
       ZZZ       0.0000
    Hexadecapole Moments (Debye-Ang^3)
      XXXX    -270.4910   XXXY      -0.0000   XXYY     -90.1637
      XYYY      -0.0000   YYYY    -270.4910   XXXZ      -0.0000
      XXYZ      -0.0000   XYYZ      -0.0000   YYYZ      -0.0000
      XXZZ     -66.1120   XYZZ      -0.0000   YYZZ     -66.1120
      XZZZ      -0.0000   YZZZ      -0.0000   ZZZZ     -52.4167
 -----------------------------------------------------------------
Archival summary:
1\1\vpn-052-080.usc.edu\SP\ProcedureUnspecified\BasisUnspecified\66\FriSep2822:34:192018FriSep2822:34:192018\0\\#,ProcedureUnspecified,BasisUnspecified,\\0,1\C\H,1,1.08144\C,1,1.39359,2,120\H,3,1.08144,1,120,2,-0,0\C,3,1.39359,1,120,2,180,0\H,5,1.08144,3,120,1,-180,0\C,5,1.39359,3,120,1,-0,0\H,7,1.08144,5,120,3,180,0\C,7,1.39359,5,120,3,0,0\H,9,1.08144,7,120,5,180,0\C,9,1.39359,7,120,5,-0,0\H,11,1.08144,9,120,7,180,0\\HF=-230.756446\\@

 Total job time:  12031.26s(wall), 11988.77s(cpu) 
 Fri Sep 28 22:34:19 2018

        *************************************************************
        *                                                           *
        *  Thank you very much for using Q-Chem.  Have a nice day.  *
        *                                                           *
        *************************************************************


