annas-macbook-pro-3.local 100.77.254
Q-Chem Developer Version! Running on 100.77.254.*
                  Welcome to Q-Chem
     A Quantum Leap Into The Future Of Chemistry


 Q-Chem 5.1, Q-Chem, Inc., Pleasanton, CA (2018)

 Yihan Shao,  Zhengting Gan,  E. Epifanovsky,  A. T. B. Gilbert,  M. Wormit,  
 J. Kussmann,  A. W. Lange,  A. Behn,  Jia Deng,  Xintian Feng,  D. Ghosh,  
 M. Goldey,  P. R. Horn,  L. D. Jacobson,  I. Kaliman,  T. Kus,  A. Landau,  
 Jie Liu,  E. I. Proynov,  R. M. Richard,  R. P. Steele,  E. J. Sundstrom,  
 H. L. Woodcock III,  P. M. Zimmerman,  D. Zuev,  B. Albrecht,  E. Alguire,  
 S. A. Baeppler,  D. Barton,  Z. Benda,  Y. A. Bernard,  E. J. Berquist,  
 K. B. Bravaya,  H. Burton,  D. Casanova,  Chun-Min Chang,  Yunqing Chen,  
 A. Chien,  K. D. Closser,  M. P. Coons,  S. Coriani,  S. Dasgupta,  
 A. L. Dempwolff,  M. Diedenhofen,  Hainam Do,  R. G. Edgar,  Po-Tung Fang,  
 S. Faraji,  S. Fatehi,  Qingguo Feng,  K. D. Fenk,  J. Fosso-Tande,  
 Qinghui Ge,  A. Ghysels,  G. Gidofalvi,  J. Gomes,  J. Gonthier,  A. Gunina,  
 M. W. D. Hanson-Heine,  P. H. P. Harbach,  A. W. Hauser,  J. E. Herr,  
 E. G. Hohenstein,  Z. C. Holden,  Kerwin Hui,  T.-C. Jagau,  Hyunjun Ji,  
 B. Kaduk,  K. Khistyaev,  Jaehoon Kim,  P. Klunzinger,  K. Koh,  
 D. Kosenkov,  L. Koulias,  T. Kowalczyk,  C. M. Krauter,  A. Kunitsa,  
 Ka Un Lao,  A. Laurent,  K. V. Lawler,  Joonho Lee,  D. Lefrancois,  
 S. Lehtola,  D. S. Levine,  Yi-Pei Li,  You-Sheng Lin,  Fenglai Liu,  
 E. Livshits,  A. Luenser,  P. Manohar,  E. Mansoor,  S. F. Manzer,  
 Shan-Ping Mao,  Yuezhi Mao,  N. Mardirossian,  A. V. Marenich,  
 T. Markovich,  L. A. Martinez-Martinez,  S. A. Maurer,  N. J. Mayhall,  
 S. C. McKenzie,  J.-M. Mewes,  A. F. Morrison,  J. W. Mullinax,  K. Nanda,  
 T. S. Nguyen-Beck,  R. Olivares-Amaya,  J. A. Parkhill,  T. M. Perrine,  
 F. Plasser,  P. Pokhilko,  S. Prager,  A. Prociuk,  E. Ramos,  D. R. Rehn,  
 F. Rob,  M. Schneider,  N. Sergueev,  S. M. Sharada,  S. Sharma,  
 D. W. Small,  T. Stauch,  T. Stein,  Yu-Chuan Su,  A. J. W. Thom,  
 A. Tkatchenko,  T. Tsuchimochi,  N. M. Tubman,  L. Vogt,  M. L. Vidal,  
 O. Vydrov,  M. A. Watson,  J. Wenzel,  M. de Wergifosse,  T. A. Wesolowski,  
 A. White,  J. Witte,  A. Yamada,  Jun Yang,  K. Yao,  S. Yeganeh,  
 S. R. Yost,  Zhi-Qiang You,  A. Zech,  Igor Ying Zhang,  Xing Zhang,  
 Yan Zhao,  Ying Zhu,  B. R. Brooks,  G. K. L. Chan,  C. J. Cramer,  
 M. S. Gordon,  W. J. Hehre,  A. Klamt,  M. W. Schmidt,  C. D. Sherrill,  
 D. G. Truhlar,  A. Aspuru-Guzik,  R. Baer,  A. T. Bell,  N. A. Besley,  
 Jeng-Da Chai,  R. A. DiStasio Jr.,  A. Dreuw,  B. D. Dunietz,  
 T. R. Furlani,  Chao-Ping Hsu,  Yousung Jung,  Jing Kong,  D. S. Lambrecht,  
 WanZhen Liang,  C. Ochsenfeld,  V. A. Rassolov,  L. V. Slipchenko,  
 J. E. Subotnik,  T. Van Voorhis,  J. M. Herbert,  A. I. Krylov,  
 P. M. W. Gill,  M. Head-Gordon

 Contributors to earlier versions of Q-Chem not listed above: 
 R. D. Adamson,  B. Austin,  J. Baker,  G. J. O. Beran,  K. Brandhorst,  
 S. T. Brown,  E. F. C. Byrd,  A. K. Chakraborty,  C.-L. Cheng,  
 Siu Hung Chien,  D. M. Chipman,  D. L. Crittenden,  H. Dachsel,  
 R. J. Doerksen,  A. D. Dutoi,  L. Fusti-Molnar,  W. A. Goddard III,  
 A. Golubeva-Zadorozhnaya,  S. R. Gwaltney,  G. Hawkins,  A. Heyden,  
 S. Hirata,  G. Kedziora,  F. J. Keil,  C. Kelley,  Jihan Kim,  R. A. King,  
 R. Z. Khaliullin,  P. P. Korambath,  W. Kurlancheek,  A. M. Lee,  M. S. Lee,  
 S. V. Levchenko,  Ching Yeh Lin,  D. Liotard,  R. C. Lochan,  I. Lotan,  
 P. E. Maslen,  N. Nair,  D. P. O'Neill,  D. Neuhauser,  E. Neuscamman,  
 C. M. Oana,  R. Olson,  B. Peters,  R. Peverati,  P. A. Pieniazek,  
 Y. M. Rhee,  J. Ritchie,  M. A. Rohrdanz,  E. Rosta,  N. J. Russ,  
 H. F. Schaefer III,  N. E. Schultz,  N. Shenvi,  A. C. Simmonett,  A. Sodt,  
 D. Stuck,  K. S. Thanthiriwatte,  V. Vanovschi,  Tao Wang,  A. Warshel,  
 C. F. Williams,  Q. Wu,  X. Xu,  W. Zhang

 Please cite Q-Chem as follows:
 Y. Shao et al., Mol. Phys. 113, 184-215 (2015)
 DOI: 10.1080/00268976.2014.952696

 Q-Chem 5.1.0 for Mac (Intel) OS X

 Parts of Q-Chem use Armadillo 8.300.2 (Tropical Shenanigans).
 http://arma.sourceforge.net/

 Q-Chem begins on Thu Sep  6 09:16:34 2018  

Annas-MacBook-Pro-3.local
Host: 0

     Scratch files written to /scratch/qchem48989//
Processing $rem in /Users/annakrylov/.qchemrc.
CC_MEMORY  4000
Core orbitals will be frozen

Checking the input file for inconsistencies... 	...done.

--------------------------------------------------------------
User input:
--------------------------------------------------------------
$comment
RI-MP2/cc-pVTZ optimized geometry. 
$end

$molecule
0 1
    H         2.4750347531    0.0000000000    0.0000000000
    C         1.3935929418    0.0000000000    0.0000000000
    C         0.6967964709    1.2068868901    0.0000000000
    H         1.2375173766    2.1434429715    0.0000000000
    C        -0.6967964709    1.2068868901    0.0000000000
    H        -1.2375173766    2.1434429715    0.0000000000
    C        -1.3935929418    0.0000000000    0.0000000000
    H        -2.4750347531    0.0000000000    0.0000000000
    C        -0.6967964709   -1.2068868901    0.0000000000
    H        -1.2375173766   -2.1434429715    0.0000000000
    C         0.6967964709   -1.2068868901    0.0000000000
    H         1.2375173766   -2.1434429715    0.0000000000
$end

$rem
   JOB_TYPE  =  SP
   BASIS  =  aug-cc-pVDZ
   METHOD  =  EOM-CCSD
   CVS_EE_STATES = [0,0,0,0,0,5,5,5]
!   CC_MEMORY = 80000
   cc_trans_prop = 1
$end
--------------------------------------------------------------
 ----------------------------------------------------------------
             Standard Nuclear Orientation (Angstroms)
    I     Atom           X                Y                Z
 ----------------------------------------------------------------
    1      H       2.4750347531     0.0000000000    -0.0000000000
    2      C       1.3935929418     0.0000000000    -0.0000000000
    3      C       0.6967964709     1.2068868901     0.0000000000
    4      H       1.2375173766     2.1434429715     0.0000000000
    5      C      -0.6967964709     1.2068868901     0.0000000000
    6      H      -1.2375173766     2.1434429715     0.0000000000
    7      C      -1.3935929418     0.0000000000     0.0000000000
    8      H      -2.4750347531     0.0000000000     0.0000000000
    9      C      -0.6967964709    -1.2068868901    -0.0000000000
   10      H      -1.2375173766    -2.1434429715    -0.0000000000
   11      C       0.6967964709    -1.2068868901    -0.0000000000
   12      H       1.2375173766    -2.1434429715    -0.0000000000
 ----------------------------------------------------------------
 Molecular Point Group                 D2h   NOp =  8
 Largest Abelian Subgroup              D2h   NOp =  8
 Nuclear Repulsion Energy =   203.7187449024 hartrees
 There are       21 alpha and       21 beta electrons
 Requested basis set is aug-cc-pVDZ
 There are 84 shells and 192 basis functions
MEM_TOTAL is adjusted to CC_MEMORY + MEM_STATIC!
 Total memory of 4192MB is distributed as follows: 
   QALLOC including MEM_STATIC uses 192MB
   MEM_STATIC is set to 192MB
   CCMAN JOB total memory use is  4000MB
 Warning: actual memory use might exceed 4192MB

 Total QAlloc Memory Limit    192 MB
 Mega-Array Size       188 MB
 MEM_STATIC part       192 MB

                       Distance Matrix (Angstroms)
             H (  1)   C (  2)   C (  3)   H (  4)   C (  5)   H (  6)
   C (  2)  1.081442
   C (  3)  2.149118  1.393593
   H (  4)  2.475035  2.149118  1.081442
   C (  5)  3.393684  2.413774  1.393593  2.149118
   H (  6)  4.286886  3.393684  2.149118  2.475035  1.081442
   C (  7)  3.868628  2.787186  2.413774  3.393684  1.393593  2.149118
   H (  8)  4.950070  3.868628  3.393684  4.286886  2.149118  2.475035
   C (  9)  3.393684  2.413774  2.787186  3.868628  2.413774  3.393684
   H ( 10)  4.286886  3.393684  3.868628  4.950070  3.393684  4.286886
   C ( 11)  2.149118  1.393593  2.413774  3.393684  2.787186  3.868628
   H ( 12)  2.475035  2.149118  3.393684  4.286886  3.868628  4.950070
             C (  7)   H (  8)   C (  9)   H ( 10)   C ( 11)
   H (  8)  1.081442
   C (  9)  1.393593  2.149118
   H ( 10)  2.149118  2.475035  1.081442
   C ( 11)  2.413774  3.393684  1.393593  2.149118
   H ( 12)  3.393684  4.286886  2.149118  2.475035  1.081442

 A cutoff of  1.0D-14 yielded   3570 shell pairs
 There are     18738 function pairs (     21180 Cartesian)
 Smallest overlap matrix eigenvalue = 2.32E-06

 Scale SEOQF with 1.000000e-01/1.000000e-01/1.000000e-01

 Standard Electronic Orientation quadrupole field applied
 Nucleus-field energy     =     0.0000000057 hartrees
 Guess from superposition of atomic densities
 Warning:  Energy on first SCF cycle will be non-variational
 SAD guess density has 42.000000 electrons

 -----------------------------------------------------------------------
  General SCF calculation program by
  Eric Jon Sundstrom, Paul Horn, Yuezhi Mao, Dmitri Zuev, Alec White,
  David Stuck, Shaama M.S., Shane Yost, Joonho Lee, David Small,
  Daniel Levine, Susi Lehtola, Hugh Burton, Evgeny Epifanovsky
 -----------------------------------------------------------------------
 Hartree-Fock
 A restricted SCF calculation will be
 performed using DIIS
 SCF converges when DIIS error is below 1.0e-08
 ---------------------------------------
  Cycle       Energy         DIIS error
 ---------------------------------------
    1    -233.2461096475      4.69e-02  
    2    -230.6633078053      3.02e-03  
    3    -230.7229091565      8.56e-04  
    4    -230.7275611300      3.62e-04  
    5    -230.7282515779      2.89e-05  
    6    -230.7282609792      4.91e-06  
    7    -230.7282613003      1.55e-06  
    8    -230.7282613802      1.92e-07  
    9    -230.7282613339      2.77e-08  
   10    -230.7282613711      1.04e-08  
   11    -230.7282613718      7.88e-09  Convergence criterion met
 ---------------------------------------
 SCF time:   CPU 27.82s  wall 28.00s 
 SCF   energy in the final basis set =     -230.7282613718


 ------------------------------------------------------------------------------

   CCMAN2: suite of methods based on coupled cluster
           and equation of motion theories.

   Components:
   * libvmm-1.3-trunk
     by Evgeny Epifanovsky, Ilya Kaliman.
   * libtensor-2.5-trunk
     by Evgeny Epifanovsky, Michael Wormit, Dmitry Zuev, Sam Manzer, 
        Ilya Kaliman.
   * libcc-2.5-trunk
     by Evgeny Epifanovsky, Arik Landau, Tomasz Kus, Kirill Khistyaev, 
        Dmitry Zuev, Prashant Manohar, Xintian Feng, Anna Krylov, 
        Matthew Goldey, Alec White, Thomas Jagau, Kaushik Nanda, 
        Anastasia Gunina, Alexander Kunitsa, Joonho Lee.

   CCMAN original authors:
   Anna I. Krylov, C. David Sherrill, Steven R. Gwaltney,
   Edward F. C. Byrd (2000)
   Sergey V. Levchenko, Lyudmila V. Slipchenko, Tao Wang,
   Ana-Maria C. Cristian (2003)
   Piotr A. Pieniazek, C. Melania Oana, Evgeny Epifanovsky (2007)
   Prashant Manohar (2009)

 ------------------------------------------------------------------------------


 Calculation will run on 2 cores with 4000MB of RAM.


 Alpha MOs, Restricted
 -- Occupied --                  
-11.242 -11.242 -11.242 -11.240 -11.240 -11.240  -1.153  -1.017
  1 Ag    1 B3u   1 B2u   2 Ag    1 B1g   2 B3u   3 Ag    3 B3u                
 -1.017  -0.826  -0.826  -0.711  -0.645  -0.620  -0.589  -0.589
  2 B2u   4 Ag    2 B1g   5 Ag    4 B3u   3 B2u   5 B3u   4 B2u                
 -0.502  -0.495  -0.495  -0.337  -0.337
  1 B1u   6 Ag    3 B1g   1 B2g   1 B3g                                        
 -- Virtual --                   
  0.036   0.043   0.043   0.057   0.057   0.076   0.108   0.108
  7 Ag    6 B3u   5 B2u   8 Ag    4 B1g   7 B3u   2 B1u   1 Au                 
  0.123   0.143   0.143   0.146   0.148   0.148   0.149   0.154
  3 B1u   2 B2g   2 B3g   6 B2u   8 B3u   7 B2u   9 Ag   10 Ag                 
  0.154   0.168   0.168   0.169   0.185   0.191   0.191   0.192
  5 B1g   9 B3u   8 B2u  11 Ag   10 B3u  12 Ag    6 B1g   3 B2g                
  0.199   0.199   0.267   0.302   0.302   0.313   0.313   0.327
  4 B1u   2 Au    7 B1g   9 B2u  11 B3u   8 B1g  13 Ag   14 Ag                 
  0.338   0.348   0.357   0.357   0.367   0.381   0.381   0.387
  5 B1u   4 B2g   9 B1g  15 Ag   12 B3u  13 B3u  10 B2u  11 B2u                
  0.412   0.428   0.428   0.431   0.431   0.443   0.443   0.505
 14 B3u   5 B2g   3 B3g  15 B3u  12 B2u  16 Ag   10 B1g  17 Ag                 
  0.505   0.505   0.565   0.573   0.575   0.575   0.592   0.592
  6 B1u   3 Au    4 B3g   6 B2g  13 B2u  16 B3u  11 B1g  18 Ag                 
  0.595   0.599   0.611   0.619   0.663   0.663   0.689   0.689
 12 B1g  19 Ag    7 B1u  20 Ag   17 B3u  14 B2u   4 Au    8 B1u                
  0.693   0.693   0.693   0.694   0.694   0.759   0.759   0.764
 13 B1g  21 Ag   18 B3u  19 B3u  15 B2u   7 B2g   5 B3g  16 B2u                
  0.773   0.779   0.779   0.839   0.857   0.857   0.859   0.891
 20 B3u  22 Ag   14 B1g   9 B1u  21 B3u  17 B2u  15 B1g  23 Ag                 
  0.891   0.923   0.923   0.928   0.928   0.962   0.975   0.975
 16 B1g   8 B2g   6 B3g  10 B1u   5 Au    9 B2g  17 B1g  24 Ag                 
  0.979   0.979   1.007   1.015   1.068   1.079   1.100   1.100
 10 B2g   7 B3g  22 B3u  25 Ag   23 B3u   6 Au   18 B2u  24 B3u                
  1.181   1.181   1.199   1.345   1.345   1.422   1.485   1.502
 11 B1u   7 Au   18 B1g  19 B2u  25 B3u   8 B3g  11 B2g  20 B2u                
  1.534   1.534   1.538   1.538   1.553   1.582   1.610   1.622
 21 B2u  26 B3u  19 B1g  26 Ag   12 B1u  27 B3u  27 Ag   28 B3u                
  1.622   1.638   1.638   1.643   1.709   1.709   1.714   1.714
 22 B2u  20 B1g  28 Ag   29 Ag    8 Au   13 B1u  12 B2g   9 B3g                
  1.790   1.790   1.791   1.832   1.896   1.896   1.912   1.933
 30 Ag   21 B1g  23 B2u  31 Ag   14 B1u   9 Au   32 Ag   22 B1g                
  1.952   1.952   1.970   1.970   1.987   1.991   2.090   2.107
 24 B2u  29 B3u  23 B1g  33 Ag   13 B2g  30 B3u  15 B1u  31 B3u                
  2.107   2.124   2.124   2.203   2.203   2.222   2.222   2.266
 25 B2u  14 B2g  10 B3g  11 B3g  15 B2g  24 B1g  34 Ag   26 B2u                
  2.266   2.297   2.363   2.374   2.374   2.399   2.454   2.454
 32 B3u  27 B2u  25 B1g  16 B1u  10 Au   33 B3u  35 Ag   26 B1g                
  2.622   2.682   2.793   2.793   2.793   2.793   2.804   2.972
 11 Au   16 B2g  36 Ag   27 B1g  28 B2u  34 B3u  37 Ag   29 B2u                
  2.972   2.981   3.146   3.146   3.158   3.158   3.388   3.564
 35 B3u  36 B3u  28 B1g  38 Ag   30 B2u  37 B3u  29 B1g  30 B1g                
  3.564   3.888   4.817
 39 Ag   38 B3u  39 B3u                                                        

 Beta MOs, Restricted
 -- Occupied --                  
-11.242 -11.242 -11.242 -11.240 -11.240 -11.240  -1.153  -1.017
  1 Ag    1 B3u   1 B2u   2 Ag    1 B1g   2 B3u   3 Ag    3 B3u                
 -1.017  -0.826  -0.826  -0.711  -0.645  -0.620  -0.589  -0.589
  2 B2u   4 Ag    2 B1g   5 Ag    4 B3u   3 B2u   5 B3u   4 B2u                
 -0.502  -0.495  -0.495  -0.337  -0.337
  1 B1u   6 Ag    3 B1g   1 B2g   1 B3g                                        
 -- Virtual --                   
  0.036   0.043   0.043   0.057   0.057   0.076   0.108   0.108
  7 Ag    6 B3u   5 B2u   8 Ag    4 B1g   7 B3u   2 B1u   1 Au                 
  0.123   0.143   0.143   0.146   0.148   0.148   0.149   0.154
  3 B1u   2 B2g   2 B3g   6 B2u   8 B3u   7 B2u   9 Ag   10 Ag                 
  0.154   0.168   0.168   0.169   0.185   0.191   0.191   0.192
  5 B1g   9 B3u   8 B2u  11 Ag   10 B3u  12 Ag    6 B1g   3 B2g                
  0.199   0.199   0.267   0.302   0.302   0.313   0.313   0.327
  4 B1u   2 Au    7 B1g   9 B2u  11 B3u   8 B1g  13 Ag   14 Ag                 
  0.338   0.348   0.357   0.357   0.367   0.381   0.381   0.387
  5 B1u   4 B2g   9 B1g  15 Ag   12 B3u  13 B3u  10 B2u  11 B2u                
  0.412   0.428   0.428   0.431   0.431   0.443   0.443   0.505
 14 B3u   5 B2g   3 B3g  15 B3u  12 B2u  16 Ag   10 B1g  17 Ag                 
  0.505   0.505   0.565   0.573   0.575   0.575   0.592   0.592
  6 B1u   3 Au    4 B3g   6 B2g  13 B2u  16 B3u  11 B1g  18 Ag                 
  0.595   0.599   0.611   0.619   0.663   0.663   0.689   0.689
 12 B1g  19 Ag    7 B1u  20 Ag   17 B3u  14 B2u   4 Au    8 B1u                
  0.693   0.693   0.693   0.694   0.694   0.759   0.759   0.764
 13 B1g  21 Ag   18 B3u  19 B3u  15 B2u   7 B2g   5 B3g  16 B2u                
  0.773   0.779   0.779   0.839   0.857   0.857   0.859   0.891
 20 B3u  22 Ag   14 B1g   9 B1u  21 B3u  17 B2u  15 B1g  23 Ag                 
  0.891   0.923   0.923   0.928   0.928   0.962   0.975   0.975
 16 B1g   8 B2g   6 B3g  10 B1u   5 Au    9 B2g  17 B1g  24 Ag                 
  0.979   0.979   1.007   1.015   1.068   1.079   1.100   1.100
 10 B2g   7 B3g  22 B3u  25 Ag   23 B3u   6 Au   18 B2u  24 B3u                
  1.181   1.181   1.199   1.345   1.345   1.422   1.485   1.502
 11 B1u   7 Au   18 B1g  19 B2u  25 B3u   8 B3g  11 B2g  20 B2u                
  1.534   1.534   1.538   1.538   1.553   1.582   1.610   1.622
 21 B2u  26 B3u  19 B1g  26 Ag   12 B1u  27 B3u  27 Ag   28 B3u                
  1.622   1.638   1.638   1.643   1.709   1.709   1.714   1.714
 22 B2u  20 B1g  28 Ag   29 Ag    8 Au   13 B1u  12 B2g   9 B3g                
  1.790   1.790   1.791   1.832   1.896   1.896   1.912   1.933
 30 Ag   21 B1g  23 B2u  31 Ag   14 B1u   9 Au   32 Ag   22 B1g                
  1.952   1.952   1.970   1.970   1.987   1.991   2.090   2.107
 24 B2u  29 B3u  23 B1g  33 Ag   13 B2g  30 B3u  15 B1u  31 B3u                
  2.107   2.124   2.124   2.203   2.203   2.222   2.222   2.266
 25 B2u  14 B2g  10 B3g  11 B3g  15 B2g  24 B1g  34 Ag   26 B2u                
  2.266   2.297   2.363   2.374   2.374   2.399   2.454   2.454
 32 B3u  27 B2u  25 B1g  16 B1u  10 Au   33 B3u  35 Ag   26 B1g                
  2.622   2.682   2.793   2.793   2.793   2.793   2.804   2.972
 11 Au   16 B2g  36 Ag   27 B1g  28 B2u  34 B3u  37 Ag   29 B2u                
  2.972   2.981   3.146   3.146   3.158   3.158   3.388   3.564
 35 B3u  36 B3u  28 B1g  38 Ag   30 B2u  37 B3u  29 B1g  30 B1g                
  3.564   3.888   4.817
 39 Ag   38 B3u  39 B3u                                                        

 Occupation and symmetry of molecular orbitals

 Point group: D2h (8 irreducible representations).

                           Ag   B1g  B2g  B3g  Au   B1u  B2u  B3u   All 
 ------------------------------------------------------------------------
 All molecular orbitals:
  - Alpha                  39   30   16   11   11   16   30   39    192 
  - Beta                   39   30   16   11   11   16   30   39    192 
 ------------------------------------------------------------------------
 Alpha orbitals:
  - Frozen occupied        2    1    0    0    0    0    1    2     6   
  - Active occupied        4    2    1    1    0    1    3    3     15  
  - Active virtual         33   27   15   10   11   15   26   34    171 
  - Frozen virtual         0    0    0    0    0    0    0    0     0   
 ------------------------------------------------------------------------
 Beta orbitals:
  - Frozen occupied        2    1    0    0    0    0    1    2     6   
  - Active occupied        4    2    1    1    0    1    3    3     15  
  - Active virtual         33   27   15   10   11   15   26   34    171 
  - Frozen virtual         0    0    0    0    0    0    0    0     0   
 ------------------------------------------------------------------------

 Import integrals:   CPU 0.00 s  wall 0.00 s

 Import integrals:   CPU 74.12 s  wall 63.09 s

 MP2 amplitudes:   CPU 10.37 s  wall 9.87 s

           CCSD T amplitudes will be solved using DIIS.

           Start     Size      MaxIter   EConv     TConv     
           3         7         100       1.00e-06  1.00e-04  
 ------------------------------------------------------------------------------
           Energy (a.u.)   Ediff      Tdiff       Comment
 ------------------------------------------------------------------------------
          -231.53841619                           
     1    -231.54670846   8.29e-03   9.24e-01     
     2    -231.57002025   2.33e-02   1.25e-01     
     3    -231.57134600   1.33e-03   4.12e-02     
     4    -231.57362991   2.28e-03   1.31e-02     Switched to DIIS steps.
     5    -231.57447252   8.43e-04   1.04e-02     
     6    -231.57448573   1.32e-05   2.14e-03     
     7    -231.57447728   8.45e-06   6.39e-04     
     8    -231.57447660   6.81e-07   1.54e-04     
     9    -231.57447658   2.65e-08   4.83e-05     
 ------------------------------------------------------------------------------
          -231.57447658                           CCSD T converged.

 SCF energy                 = -230.72826137
 MP2 energy                 = -231.53841619
 CCSD correlation energy     =   -0.84621520
 CCSD total energy           = -231.57447658

 CCSD  T1^2 = 0.0054  T2^2 = 0.3461  Leading amplitudes:

 Amplitude    Orbitals with energies
 -0.0159       1 (B2g) A                 ->    10 (B2g) A                  
              -0.3365                          0.9787                      
 -0.0159       1 (B2g) B                 ->    10 (B2g) B                  
              -0.3365                          0.9787                      
  0.0159       1 (B3g) A                 ->    7 (B3g) A                   
              -0.3365                          0.9787                      
  0.0159       1 (B3g) B                 ->    7 (B3g) B                   
              -0.3365                          0.9787                      

 Amplitude    Orbitals with energies
 -0.0578       1 (B3g) A     1 (B3g) B   ->    1 (Au) A      1 (Au) B     
              -0.3365       -0.3365            0.1077        0.1077       
  0.0578       1 (B3g) A     1 (B3g) B   ->    1 (Au) B      1 (Au) A     
              -0.3365       -0.3365            0.1077        0.1077       
  0.0578       1 (B3g) B     1 (B3g) A   ->    1 (Au) A      1 (Au) B     
              -0.3365       -0.3365            0.1077        0.1077       
 -0.0578       1 (B3g) B     1 (B3g) A   ->    1 (Au) B      1 (Au) A     
              -0.3365       -0.3365            0.1077        0.1077       
 -0.0578       1 (B2g) A     1 (B2g) B   ->    2 (B1u) A     2 (B1u) B    
              -0.3365       -0.3365            0.1077        0.1077       
  0.0578       1 (B2g) A     1 (B2g) B   ->    2 (B1u) B     2 (B1u) A    
              -0.3365       -0.3365            0.1077        0.1077       
  0.0578       1 (B2g) B     1 (B2g) A   ->    2 (B1u) A     2 (B1u) B    
              -0.3365       -0.3365            0.1077        0.1077       
 -0.0578       1 (B2g) B     1 (B2g) A   ->    2 (B1u) B     2 (B1u) A    
              -0.3365       -0.3365            0.1077        0.1077       

 Computing CCSD intermediates for later calculations
 Finished.

           CCSD Lambda amplitudes will be solved using DIIS.
           Start     Size      MaxIter   EConv     LConv     
           3         7         100       1.00e-06  1.00e-04  
 ------------------------------------------------------------------------------
            Enorm      Ldiff       Comment
 ------------------------------------------------------------------------------
     1     5.39e-02   4.50e-02     
     2     8.79e-03   2.92e-04     
     3     3.06e-03   1.86e-03     
     4     1.12e-03   2.24e-04     Switched to DIIS steps.
     5     3.03e-04   3.07e-04     
     6     9.99e-05   5.55e-05     
     7     3.08e-05   1.59e-05     
     8     8.34e-06   4.37e-06     
     9     2.44e-06   9.36e-07     
    10     7.97e-07   2.22e-07     
 ------------------------------------------------------------------------------
                                   CCSD Lambda converged.

 CCSD calculation:   CPU 487.31 s  wall 272.97 s

        Solving for CVS-EOMEE-CCSD B1u singlet states.

        CVS-EOMEE-CCSD/MP2 right amplitudes will be solved using Davidson.
        Amplitudes will be solved using standard  algorithm.
     Hard-coded thresholds: 
     LinDepThresh=1.00e-15  NormThresh=1.00e-06  ReorthogonThresh=1.00e-02

      Roots     MaxVec    MaxIter   Precond   Conv      Shift    
      5         120       60        1         1.00e-05  0.00e+00  
 ------------------------------------------------------------------------------
      Iter ConvRoots NVecs ResNorm Current eigenvalues (eV)
 ------------------------------------------------------------------------------
      0    0      5     8.20e-01   302.0689   302.0825   303.4939   304.6313   304.6796   
      1    0      10    1.14e+00   296.2200   296.2349   297.3577   299.0433   299.1047   
      2    0      15    2.68e-02   289.5683   289.5723   290.5053   292.2607   292.3184   
      3    0      20    8.84e-03   288.8824   288.8857   290.1248   292.0447   292.1005   
      4    0      25    7.78e-03   288.4485   288.4573   289.9688   291.9976   292.0529   
      5    0      30    1.97e-03   288.2746   288.2836   289.8243   291.9380   291.9929   
      6    0      35    1.29e-03   288.2544   288.2634   289.7996   291.8746   291.9276   
      7    0      40    4.57e-04   288.2488   288.2579   289.7962   291.8397   291.8910   
      8    0      45    1.60e-04   288.2464   288.2556   289.7943   291.8166   291.8670   
      9    2      50    5.25e-05   288.2460*  288.2551*  289.7944   291.8081   291.8583   
      10   3      53    2.04e-05   288.2459*  288.2551*  289.7937*  291.8065   291.8566   
      11   3      55    1.17e-05   288.2459*  288.2551*  289.7937*  291.8055   291.8556   
      12   5      57    6.28e-06   288.2459*  288.2551*  289.7937*  291.8052*  291.8553*  

     Davidson procedure converged

 EOMEE transition 1/B1u
 Total energy = -220.98163362 a.u.  Excitation energy = 288.2459 eV.
 R0^2 = 0.0000  R1^2 = 0.8359  R2_CCVV^2 = 0.0005  R2_COVV^2 = 0.0818  Res^2 = 6.04e-06
 Conv-d = yes

 Amplitude    Transitions between orbitals
  0.3696       1 (Ag) A                  ->    2 (B1u) A                  
  0.3696       1 (Ag) B                  ->    2 (B1u) B                  
  0.2709       1 (B1g) A                 ->    1 (Au) A                   
  0.2709       1 (B1g) B                 ->    1 (Au) B                   
 -0.2708       2 (Ag) A                  ->    2 (B1u) A                  
 -0.2708       2 (Ag) B                  ->    2 (B1u) B                  
  0.1972       1 (Ag) A                  ->    4 (B1u) A                  
  0.1972       1 (Ag) B                  ->    4 (B1u) B                  
  0.1676       1 (B3u) A                 ->    4 (B2g) A                  
  0.1676       1 (B3u) B                 ->    4 (B2g) B                  
  0.1437       1 (B1g) A                 ->    2 (Au) A                   
  0.1437       1 (B1g) B                 ->    2 (Au) B                   
 -0.1437       2 (Ag) A                  ->    4 (B1u) A                  
 -0.1437       2 (Ag) B                  ->    4 (B1u) B                  

              Summary of significant orbitals:

               Number  Type             Irrep      Energy
               1       Occ  Alpha       1 (Ag)    -11.2421
               4       Occ  Alpha       2 (Ag)    -11.2403
               5       Occ  Alpha       1 (B1g)    -11.2403
               2       Occ  Alpha       1 (B3u)    -11.2416
               1       Occ  Beta        1 (Ag)    -11.2421
               4       Occ  Beta        2 (Ag)    -11.2403
               5       Occ  Beta        1 (B1g)    -11.2403
               2       Occ  Beta        1 (B3u)    -11.2416
               55      Vir  Alpha       4 (B2g)      0.3480
               29      Vir  Alpha       1 (Au)      0.1077
               47      Vir  Alpha       2 (Au)      0.1991
               28      Vir  Alpha       2 (B1u)      0.1077
               46      Vir  Alpha       4 (B1u)      0.1991
               55      Vir  Beta        4 (B2g)      0.3480
               29      Vir  Beta        1 (Au)      0.1077
               47      Vir  Beta        2 (Au)      0.1991
               28      Vir  Beta        2 (B1u)      0.1077
               46      Vir  Beta        4 (B1u)      0.1991


 EOMEE transition 2/B1u
 Total energy = -220.98129774 a.u.  Excitation energy = 288.2551 eV.
 R0^2 = 0.0000  R1^2 = 0.8356  R2_CCVV^2 = 0.0005  R2_COVV^2 = 0.0820  Res^2 = 6.24e-06
 Conv-d = yes

 Amplitude    Transitions between orbitals
 -0.3772       2 (Ag) A                  ->    2 (B1u) A                  
 -0.3772       2 (Ag) B                  ->    2 (B1u) B                  
 -0.3772       1 (B1g) A                 ->    1 (Au) A                   
 -0.3772       1 (B1g) B                 ->    1 (Au) B                   
 -0.1998       2 (Ag) A                  ->    4 (B1u) A                  
 -0.1998       2 (Ag) B                  ->    4 (B1u) B                  
 -0.1998       1 (B1g) A                 ->    2 (Au) A                   
 -0.1998       1 (B1g) B                 ->    2 (Au) B                   
 -0.1672       2 (B3u) A                 ->    4 (B2g) A                  
 -0.1672       2 (B3u) B                 ->    4 (B2g) B                  

              Summary of significant orbitals:

               Number  Type             Irrep      Energy
               4       Occ  Alpha       2 (Ag)    -11.2403
               5       Occ  Alpha       1 (B1g)    -11.2403
               6       Occ  Alpha       2 (B3u)    -11.2397
               4       Occ  Beta        2 (Ag)    -11.2403
               5       Occ  Beta        1 (B1g)    -11.2403
               6       Occ  Beta        2 (B3u)    -11.2397
               55      Vir  Alpha       4 (B2g)      0.3480
               29      Vir  Alpha       1 (Au)      0.1077
               47      Vir  Alpha       2 (Au)      0.1991
               28      Vir  Alpha       2 (B1u)      0.1077
               46      Vir  Alpha       4 (B1u)      0.1991
               55      Vir  Beta        4 (B2g)      0.3480
               29      Vir  Beta        1 (Au)      0.1077
               47      Vir  Beta        2 (Au)      0.1991
               28      Vir  Beta        2 (B1u)      0.1077
               46      Vir  Beta        4 (B1u)      0.1991


 EOMEE transition 3/B1u
 Total energy = -220.92475329 a.u.  Excitation energy = 289.7937 eV.
 R0^2 = 0.0000  R1^2 = 0.7966  R2_CCVV^2 = 0.0004  R2_COVV^2 = 0.1015  Res^2 = 8.75e-06
 Conv-d = yes

 Amplitude    Transitions between orbitals
  0.4149       1 (Ag) A                  ->    2 (B1u) A                  
  0.4149       1 (Ag) B                  ->    2 (B1u) B                  
  0.2854       2 (Ag) A                  ->    2 (B1u) A                  
  0.2854       2 (Ag) B                  ->    2 (B1u) B                  
 -0.2854       1 (B1g) A                 ->    1 (Au) A                   
 -0.2854       1 (B1g) B                 ->    1 (Au) B                   
  0.1762       1 (Ag) A                  ->    4 (B1u) A                  
  0.1762       1 (Ag) B                  ->    4 (B1u) B                  
  0.1197       2 (Ag) A                  ->    4 (B1u) A                  
  0.1197       2 (Ag) B                  ->    4 (B1u) B                  
 -0.1197       1 (B1g) A                 ->    2 (Au) A                   
 -0.1197       1 (B1g) B                 ->    2 (Au) B                   

              Summary of significant orbitals:

               Number  Type             Irrep      Energy
               1       Occ  Alpha       1 (Ag)    -11.2421
               4       Occ  Alpha       2 (Ag)    -11.2403
               5       Occ  Alpha       1 (B1g)    -11.2403
               1       Occ  Beta        1 (Ag)    -11.2421
               4       Occ  Beta        2 (Ag)    -11.2403
               5       Occ  Beta        1 (B1g)    -11.2403
               29      Vir  Alpha       1 (Au)      0.1077
               47      Vir  Alpha       2 (Au)      0.1991
               28      Vir  Alpha       2 (B1u)      0.1077
               46      Vir  Alpha       4 (B1u)      0.1991
               29      Vir  Beta        1 (Au)      0.1077
               47      Vir  Beta        2 (Au)      0.1991
               28      Vir  Beta        2 (B1u)      0.1077
               46      Vir  Beta        4 (B1u)      0.1991


 EOMEE transition 4/B1u
 Total energy = -220.85083282 a.u.  Excitation energy = 291.8052 eV.
 R0^2 = 0.0000  R1^2 = 0.8076  R2_CCVV^2 = 0.0004  R2_COVV^2 = 0.0960  Res^2 = 5.15e-06
 Conv-d = yes

 Amplitude    Transitions between orbitals
 -0.5561       2 (Ag) A                  ->    3 (B1u) A                  
 -0.5561       2 (Ag) B                  ->    3 (B1u) B                  
  0.1981       2 (B3u) A                 ->    2 (B2g) A                  
  0.1981       2 (B3u) B                 ->    2 (B2g) B                  
 -0.1344       1 (B2u) A                 ->    2 (B3g) A                  
 -0.1344       1 (B2u) B                 ->    2 (B3g) B                  
 -0.1344       1 (B3u) A                 ->    2 (B2g) A                  
 -0.1344       1 (B3u) B                 ->    2 (B2g) B                  

              Summary of significant orbitals:

               Number  Type             Irrep      Energy
               4       Occ  Alpha       2 (Ag)    -11.2403
               3       Occ  Alpha       1 (B2u)    -11.2416
               2       Occ  Alpha       1 (B3u)    -11.2416
               6       Occ  Alpha       2 (B3u)    -11.2397
               4       Occ  Beta        2 (Ag)    -11.2403
               3       Occ  Beta        1 (B2u)    -11.2416
               2       Occ  Beta        1 (B3u)    -11.2416
               6       Occ  Beta        2 (B3u)    -11.2397
               31      Vir  Alpha       2 (B2g)      0.1431
               32      Vir  Alpha       2 (B3g)      0.1431
               30      Vir  Alpha       3 (B1u)      0.1227
               31      Vir  Beta        2 (B2g)      0.1431
               32      Vir  Beta        2 (B3g)      0.1431
               30      Vir  Beta        3 (B1u)      0.1227


 EOMEE transition 5/B1u
 Total energy = -220.84899310 a.u.  Excitation energy = 291.8552 eV.
 R0^2 = 0.0000  R1^2 = 0.8076  R2_CCVV^2 = 0.0004  R2_COVV^2 = 0.0960  Res^2 = 5.21e-06
 Conv-d = yes

 Amplitude    Transitions between orbitals
  0.5535       1 (Ag) A                  ->    3 (B1u) A                  
  0.5535       1 (Ag) B                  ->    3 (B1u) B                  
 -0.1974       1 (B3u) A                 ->    2 (B2g) A                  
 -0.1974       1 (B3u) B                 ->    2 (B2g) B                  
  0.1974       1 (B2u) A                 ->    2 (B3g) A                  
  0.1974       1 (B2u) B                 ->    2 (B3g) B                  

              Summary of significant orbitals:

               Number  Type             Irrep      Energy
               1       Occ  Alpha       1 (Ag)    -11.2421
               3       Occ  Alpha       1 (B2u)    -11.2416
               2       Occ  Alpha       1 (B3u)    -11.2416
               1       Occ  Beta        1 (Ag)    -11.2421
               3       Occ  Beta        1 (B2u)    -11.2416
               2       Occ  Beta        1 (B3u)    -11.2416
               31      Vir  Alpha       2 (B2g)      0.1431
               32      Vir  Alpha       2 (B3g)      0.1431
               30      Vir  Alpha       3 (B1u)      0.1227
               31      Vir  Beta        2 (B2g)      0.1431
               32      Vir  Beta        2 (B3g)      0.1431
               30      Vir  Beta        3 (B1u)      0.1227


      CVS-EOM-CCSD/MP2 left amplitudes will be solved using Davidson.
        Amplitudes will be solved using MOM  algorithm.
     Hard-coded thresholds: 
     LinDepThresh=1.00e-15  NormThresh=1.00e-06  ReorthogonThresh=1.00e-02

      Roots     MaxVec    MaxIter   Precond   Conv      Shift    
      5         120       60        1         1.00e-05  0.00e+00  
 ------------------------------------------------------------------------------
      Iter ConvRoots NVecs ResNorm Current eigenvalues (eV)
 ------------------------------------------------------------------------------
      0    0      5     2.58e-02   288.2459   288.2551   289.7937   291.8052   291.8553   
      1    0      10    4.13e-03   288.2462   288.2553   289.7938   291.8051   291.8551   
      2    0      15    4.62e-04   288.2463   288.2555   289.7938   291.8051   291.8552   
      3    0      20    5.90e-05   288.2462   288.2554   289.7937   291.8051   291.8551   
      4    2      25    8.36e-06   288.2462   288.2553   289.7937   291.8051*  291.8552*  
      5    5      28    4.71e-06   288.2462*  288.2553*  289.7936*  291.8051*  291.8552*  

     Davidson procedure converged

        Solving for CVS-EOMEE-CCSD B2u singlet states.

        CVS-EOMEE-CCSD/MP2 right amplitudes will be solved using Davidson.
        Amplitudes will be solved using standard  algorithm.
     Hard-coded thresholds: 
     LinDepThresh=1.00e-15  NormThresh=1.00e-06  ReorthogonThresh=1.00e-02

      Roots     MaxVec    MaxIter   Precond   Conv      Shift    
      5         120       60        1         1.00e-05  0.00e+00  
 ------------------------------------------------------------------------------
      Iter ConvRoots NVecs ResNorm Current eigenvalues (eV)
 ------------------------------------------------------------------------------
      0    0      5     7.74e-01   303.0965   304.0193   304.0973   304.2879   304.7642   
      1    0      10    1.13e+00   297.6728   298.4981   298.5466   298.6929   299.1938   
      2    0      15    1.60e-02   290.8896   291.6515   291.6862   291.7862   292.3183   
      3    0      20    2.43e-03   290.6064   291.4352   291.4687   291.5642   292.1092   
      4    0      25    4.02e-03   290.4737   291.3772   291.4156   291.5063   292.0601   
      5    0      30    2.80e-03   290.2332   291.2653   291.3089   291.4007   291.9650   
      6    0      35    1.32e-03   290.1504   291.2096   291.2382   291.3303   291.8945   
      7    0      40    2.88e-04   290.1435   291.2013   291.2303   291.3154   291.8793   
      8    0      45    2.07e-04   290.1377   291.1966   291.2169   291.2992   291.8709   
      9    0      50    2.99e-04   290.1320   291.1934   291.2059   291.2817   291.8670   
      10   0      55    2.52e-04   290.1307   291.1890   291.1906   291.2592   291.8631   
      11   1      60    9.75e-05   290.1301*  291.1793   291.1878   291.2480   291.8593   
      12   1      64    2.77e-05   290.1300*  291.1783   291.1869   291.2458   291.8582   
      13   2      68    1.88e-05   290.1299*  291.1765   291.1860*  291.2436   291.8555   
      14   2      71    1.23e-05   290.1300*  291.1762   291.1860*  291.2434   291.8553   
      15   4      74    7.61e-06   290.1300*  291.1760*  291.1860*  291.2432*  291.8538   
      16   5      75    5.16e-06   290.1300*  291.1760*  291.1860*  291.2432*  291.8541*  

     Davidson procedure converged

 EOMEE transition 1/B2u
 Total energy = -220.91239642 a.u.  Excitation energy = 290.1300 eV.
 R0^2 = 0.0000  R1^2 = 0.8142  R2_CCVV^2 = 0.0004  R2_COVV^2 = 0.0927  Res^2 = 2.44e-06
 Conv-d = yes

 Amplitude    Transitions between orbitals
 -0.4382       1 (B2u) A                 ->    7 (Ag) A                   
 -0.4382       1 (B2u) B                 ->    7 (Ag) B                   
 -0.2080       1 (Ag) A                  ->    5 (B2u) A                  
 -0.2080       1 (Ag) B                  ->    5 (B2u) B                  
 -0.1729       1 (B2u) A                 ->    11 (Ag) A                  
 -0.1729       1 (B2u) B                 ->    11 (Ag) B                  
 -0.1554       2 (Ag) A                  ->    5 (B2u) A                  
 -0.1554       2 (Ag) B                  ->    5 (B2u) B                  
  0.1554       1 (B1g) A                 ->    6 (B3u) A                  
  0.1554       1 (B1g) B                 ->    6 (B3u) B                  
 -0.1082       1 (B2u) A                 ->    9 (Ag) A                   
 -0.1082       1 (B2u) B                 ->    9 (Ag) B                   

              Summary of significant orbitals:

               Number  Type             Irrep      Energy
               1       Occ  Alpha       1 (Ag)    -11.2421
               4       Occ  Alpha       2 (Ag)    -11.2403
               5       Occ  Alpha       1 (B1g)    -11.2403
               3       Occ  Alpha       1 (B2u)    -11.2416
               1       Occ  Beta        1 (Ag)    -11.2421
               4       Occ  Beta        2 (Ag)    -11.2403
               5       Occ  Beta        1 (B1g)    -11.2403
               3       Occ  Beta        1 (B2u)    -11.2416
               22      Vir  Alpha       7 (Ag)      0.0360
               36      Vir  Alpha       9 (Ag)      0.1490
               41      Vir  Alpha      11 (Ag)      0.1686
               24      Vir  Alpha       5 (B2u)      0.0425
               23      Vir  Alpha       6 (B3u)      0.0425
               22      Vir  Beta        7 (Ag)      0.0360
               36      Vir  Beta        9 (Ag)      0.1490
               41      Vir  Beta       11 (Ag)      0.1686
               24      Vir  Beta        5 (B2u)      0.0425
               23      Vir  Beta        6 (B3u)      0.0425


 EOMEE transition 2/B2u
 Total energy = -220.87395668 a.u.  Excitation energy = 291.1760 eV.
 R0^2 = 0.0000  R1^2 = 0.8012  R2_CCVV^2 = 0.0004  R2_COVV^2 = 0.0992  Res^2 = 5.12e-06
 Conv-d = yes

 Amplitude    Transitions between orbitals
 -0.3860       1 (B1g) A                 ->    6 (B3u) A                  
 -0.3860       1 (B1g) B                 ->    6 (B3u) B                  
 -0.3860       2 (Ag) A                  ->    5 (B2u) A                  
 -0.3860       2 (Ag) B                  ->    5 (B2u) B                  
 -0.1495       1 (B2u) A                 ->    8 (Ag) A                   
 -0.1495       1 (B2u) B                 ->    8 (Ag) B                   
 -0.1495       1 (B3u) A                 ->    4 (B1g) A                  
 -0.1495       1 (B3u) B                 ->    4 (B1g) B                  
 -0.1124       1 (B1g) A                 ->    8 (B3u) A                  
 -0.1124       1 (B1g) B                 ->    8 (B3u) B                  
  0.1124       2 (Ag) A                  ->    7 (B2u) A                  
  0.1124       2 (Ag) B                  ->    7 (B2u) B                  

              Summary of significant orbitals:

               Number  Type             Irrep      Energy
               4       Occ  Alpha       2 (Ag)    -11.2403
               5       Occ  Alpha       1 (B1g)    -11.2403
               3       Occ  Alpha       1 (B2u)    -11.2416
               2       Occ  Alpha       1 (B3u)    -11.2416
               4       Occ  Beta        2 (Ag)    -11.2403
               5       Occ  Beta        1 (B1g)    -11.2403
               3       Occ  Beta        1 (B2u)    -11.2416
               2       Occ  Beta        1 (B3u)    -11.2416
               25      Vir  Alpha       8 (Ag)      0.0575
               26      Vir  Alpha       4 (B1g)      0.0575
               24      Vir  Alpha       5 (B2u)      0.0425
               35      Vir  Alpha       7 (B2u)      0.1480
               23      Vir  Alpha       6 (B3u)      0.0425
               34      Vir  Alpha       8 (B3u)      0.1480
               25      Vir  Beta        8 (Ag)      0.0575
               26      Vir  Beta        4 (B1g)      0.0575
               24      Vir  Beta        5 (B2u)      0.0425
               35      Vir  Beta        7 (B2u)      0.1480
               23      Vir  Beta        6 (B3u)      0.0425
               34      Vir  Beta        8 (B3u)      0.1480


 EOMEE transition 3/B2u
 Total energy = -220.87358824 a.u.  Excitation energy = 291.1860 eV.
 R0^2 = 0.0000  R1^2 = 0.8009  R2_CCVV^2 = 0.0004  R2_COVV^2 = 0.0993  Res^2 = 7.75e-06
 Conv-d = yes

 Amplitude    Transitions between orbitals
  0.3170       2 (Ag) A                  ->    5 (B2u) A                  
  0.3170       2 (Ag) B                  ->    5 (B2u) B                  
 -0.3170       1 (B1g) A                 ->    6 (B3u) A                  
 -0.3170       1 (B1g) B                 ->    6 (B3u) B                  
 -0.2564       1 (Ag) A                  ->    5 (B2u) A                  
 -0.2564       1 (Ag) B                  ->    5 (B2u) B                  
 -0.2061       2 (B3u) A                 ->    4 (B1g) A                  
 -0.2061       2 (B3u) B                 ->    4 (B1g) B                  
 -0.1507       1 (B2u) A                 ->    7 (Ag) A                   
 -0.1507       1 (B2u) B                 ->    7 (Ag) B                   
 -0.1044       2 (B3u) A                 ->    5 (B1g) A                  
 -0.1044       2 (B3u) B                 ->    5 (B1g) B                  

              Summary of significant orbitals:

               Number  Type             Irrep      Energy
               1       Occ  Alpha       1 (Ag)    -11.2421
               4       Occ  Alpha       2 (Ag)    -11.2403
               5       Occ  Alpha       1 (B1g)    -11.2403
               3       Occ  Alpha       1 (B2u)    -11.2416
               6       Occ  Alpha       2 (B3u)    -11.2397
               1       Occ  Beta        1 (Ag)    -11.2421
               4       Occ  Beta        2 (Ag)    -11.2403
               5       Occ  Beta        1 (B1g)    -11.2403
               3       Occ  Beta        1 (B2u)    -11.2416
               6       Occ  Beta        2 (B3u)    -11.2397
               22      Vir  Alpha       7 (Ag)      0.0360
               26      Vir  Alpha       4 (B1g)      0.0575
               38      Vir  Alpha       5 (B1g)      0.1535
               24      Vir  Alpha       5 (B2u)      0.0425
               23      Vir  Alpha       6 (B3u)      0.0425
               22      Vir  Beta        7 (Ag)      0.0360
               26      Vir  Beta        4 (B1g)      0.0575
               38      Vir  Beta        5 (B1g)      0.1535
               24      Vir  Beta        5 (B2u)      0.0425
               23      Vir  Beta        6 (B3u)      0.0425


 EOMEE transition 4/B2u
 Total energy = -220.87148733 a.u.  Excitation energy = 291.2431 eV.
 R0^2 = 0.0000  R1^2 = 0.8004  R2_CCVV^2 = 0.0004  R2_COVV^2 = 0.0996  Res^2 = 3.14e-06
 Conv-d = yes

 Amplitude    Transitions between orbitals
 -0.3832       1 (Ag) A                  ->    5 (B2u) A                  
 -0.3832       1 (Ag) B                  ->    5 (B2u) B                  
  0.3511       1 (B2u) A                 ->    7 (Ag) A                   
  0.3511       1 (B2u) B                 ->    7 (Ag) B                   
  0.1409       1 (B3u) A                 ->    4 (B1g) A                  
  0.1409       1 (B3u) B                 ->    4 (B1g) B                  
 -0.1409       1 (B2u) A                 ->    8 (Ag) A                   
 -0.1409       1 (B2u) B                 ->    8 (Ag) B                   
  0.1254       1 (B2u) A                 ->    11 (Ag) A                  
  0.1254       1 (B2u) B                 ->    11 (Ag) B                  
  0.1049       1 (Ag) A                  ->    7 (B2u) A                  
  0.1049       1 (Ag) B                  ->    7 (B2u) B                  

              Summary of significant orbitals:

               Number  Type             Irrep      Energy
               1       Occ  Alpha       1 (Ag)    -11.2421
               3       Occ  Alpha       1 (B2u)    -11.2416
               2       Occ  Alpha       1 (B3u)    -11.2416
               1       Occ  Beta        1 (Ag)    -11.2421
               3       Occ  Beta        1 (B2u)    -11.2416
               2       Occ  Beta        1 (B3u)    -11.2416
               22      Vir  Alpha       7 (Ag)      0.0360
               25      Vir  Alpha       8 (Ag)      0.0575
               41      Vir  Alpha      11 (Ag)      0.1686
               26      Vir  Alpha       4 (B1g)      0.0575
               24      Vir  Alpha       5 (B2u)      0.0425
               35      Vir  Alpha       7 (B2u)      0.1480
               22      Vir  Beta        7 (Ag)      0.0360
               25      Vir  Beta        8 (Ag)      0.0575
               41      Vir  Beta       11 (Ag)      0.1686
               26      Vir  Beta        4 (B1g)      0.0575
               24      Vir  Beta        5 (B2u)      0.0425
               35      Vir  Beta        7 (B2u)      0.1480


 EOMEE transition 5/B2u
 Total energy = -220.84903430 a.u.  Excitation energy = 291.8541 eV.
 R0^2 = 0.0000  R1^2 = 0.7987  R2_CCVV^2 = 0.0004  R2_COVV^2 = 0.1004  Res^2 = 7.36e-06
 Conv-d = yes

 Amplitude    Transitions between orbitals
 -0.4616       2 (B3u) A                 ->    4 (B1g) A                  
 -0.4616       2 (B3u) B                 ->    4 (B1g) B                  
  0.1994       1 (B1g) A                 ->    6 (B3u) A                  
  0.1994       1 (B1g) B                 ->    6 (B3u) B                  
 -0.1994       2 (Ag) A                  ->    5 (B2u) A                  
 -0.1994       2 (Ag) B                  ->    5 (B2u) B                  
 -0.1707       2 (B3u) A                 ->    5 (B1g) A                  
 -0.1707       2 (B3u) B                 ->    5 (B1g) B                  
  0.1241       1 (B1g) A                 ->    7 (B3u) A                  
  0.1241       1 (B1g) B                 ->    7 (B3u) B                  
 -0.1204       1 (Ag) A                  ->    5 (B2u) A                  
 -0.1204       1 (Ag) B                  ->    5 (B2u) B                  

              Summary of significant orbitals:

               Number  Type             Irrep      Energy
               1       Occ  Alpha       1 (Ag)    -11.2421
               4       Occ  Alpha       2 (Ag)    -11.2403
               5       Occ  Alpha       1 (B1g)    -11.2403
               6       Occ  Alpha       2 (B3u)    -11.2397
               1       Occ  Beta        1 (Ag)    -11.2421
               4       Occ  Beta        2 (Ag)    -11.2403
               5       Occ  Beta        1 (B1g)    -11.2403
               6       Occ  Beta        2 (B3u)    -11.2397
               26      Vir  Alpha       4 (B1g)      0.0575
               38      Vir  Alpha       5 (B1g)      0.1535
               24      Vir  Alpha       5 (B2u)      0.0425
               23      Vir  Alpha       6 (B3u)      0.0425
               27      Vir  Alpha       7 (B3u)      0.0763
               26      Vir  Beta        4 (B1g)      0.0575
               38      Vir  Beta        5 (B1g)      0.1535
               24      Vir  Beta        5 (B2u)      0.0425
               23      Vir  Beta        6 (B3u)      0.0425
               27      Vir  Beta        7 (B3u)      0.0763


      CVS-EOM-CCSD/MP2 left amplitudes will be solved using Davidson.
        Amplitudes will be solved using MOM  algorithm.
     Hard-coded thresholds: 
     LinDepThresh=1.00e-15  NormThresh=1.00e-06  ReorthogonThresh=1.00e-02

      Roots     MaxVec    MaxIter   Precond   Conv      Shift    
      5         120       60        1         1.00e-05  0.00e+00  
 ------------------------------------------------------------------------------
      Iter ConvRoots NVecs ResNorm Current eigenvalues (eV)
 ------------------------------------------------------------------------------
      0    0      5     3.17e-02   290.1300   291.1760   291.1860   291.2432   291.8541   
      1    0      10    4.50e-03   290.1300   291.1758   291.1858   291.2432   291.8539   
      2    0      15    5.04e-04   290.1299   291.1758   291.1859   291.2431   291.8538   
      3    0      20    4.32e-05   290.1299   291.1758   291.1859   291.2431   291.8538   
      4    5      25    6.22e-06   290.1299*  291.1758*  291.1859*  291.2431*  291.8538*  

     Davidson procedure converged

        Solving for CVS-EOMEE-CCSD B3u singlet states.

        CVS-EOMEE-CCSD/MP2 right amplitudes will be solved using Davidson.
        Amplitudes will be solved using standard  algorithm.
     Hard-coded thresholds: 
     LinDepThresh=1.00e-15  NormThresh=1.00e-06  ReorthogonThresh=1.00e-02

      Roots     MaxVec    MaxIter   Precond   Conv      Shift    
      5         120       60        1         1.00e-05  0.00e+00  
 ------------------------------------------------------------------------------
      Iter ConvRoots NVecs ResNorm Current eigenvalues (eV)
 ------------------------------------------------------------------------------
      0    0      5     7.74e-01   303.0886   303.1303   304.1198   304.2858   304.3202   
      1    0      10    1.13e+00   297.6391   297.6935   298.5724   298.6652   298.7097   
      2    0      15    1.67e-02   290.8495   290.9025   291.7069   291.7500   291.7935   
      3    0      20    2.81e-03   290.5691   290.6199   291.4888   291.5287   291.5713   
      4    0      25    4.97e-03   290.4389   290.4896   291.4353   291.4697   291.5132   
      5    0      30    3.36e-03   290.1984   290.2485   291.3292   291.3654   291.4100   
      6    0      35    1.47e-03   290.1116   290.1593   291.2580   291.2958   291.3400   
      7    0      40    3.70e-04   290.1033   290.1505   291.2491   291.2790   291.3234   
      8    0      45    3.46e-04   290.0960   290.1427   291.2347   291.2617   291.3058   
      9    0      50    5.06e-04   290.0877   290.1336   291.2215   291.2426   291.2863   
      10   0      55    3.60e-04   290.0858   290.1314   291.2017   291.2193   291.2617   
      11   0      60    1.19e-04   290.0848   290.1303   291.1902   291.2087   291.2499   
      12   2      65    2.88e-05   290.0846*  290.1300*  291.1889   291.2054   291.2466   
      13   2      68    1.52e-05   290.0846*  290.1300*  291.1867   291.2036   291.2446   
      14   2      71    9.07e-06   290.0846*  290.1300*  291.1864   291.2029   291.2438   
      15   5      74    5.18e-06   290.0846*  290.1300*  291.1861*  291.2030*  291.2439*  

     Davidson procedure converged

 EOMEE transition 1/B3u
 Total energy = -220.91406340 a.u.  Excitation energy = 290.0846 eV.
 R0^2 = 0.0000  R1^2 = 0.8142  R2_CCVV^2 = 0.0004  R2_COVV^2 = 0.0927  Res^2 = 1.07e-06
 Conv-d = yes

 Amplitude    Transitions between orbitals
 -0.4439       2 (B3u) A                 ->    7 (Ag) A                   
 -0.4439       2 (B3u) B                 ->    7 (Ag) B                   
 -0.2106       1 (B1g) A                 ->    5 (B2u) A                  
 -0.2106       1 (B1g) B                 ->    5 (B2u) B                  
  0.2106       2 (Ag) A                  ->    6 (B3u) A                  
  0.2106       2 (Ag) B                  ->    6 (B3u) B                  
 -0.1744       2 (B3u) A                 ->    11 (Ag) A                  
 -0.1744       2 (B3u) B                 ->    11 (Ag) B                  
 -0.1094       2 (B3u) A                 ->    9 (Ag) A                   
 -0.1094       2 (B3u) B                 ->    9 (Ag) B                   

              Summary of significant orbitals:

               Number  Type             Irrep      Energy
               4       Occ  Alpha       2 (Ag)    -11.2403
               5       Occ  Alpha       1 (B1g)    -11.2403
               6       Occ  Alpha       2 (B3u)    -11.2397
               4       Occ  Beta        2 (Ag)    -11.2403
               5       Occ  Beta        1 (B1g)    -11.2403
               6       Occ  Beta        2 (B3u)    -11.2397
               22      Vir  Alpha       7 (Ag)      0.0360
               36      Vir  Alpha       9 (Ag)      0.1490
               41      Vir  Alpha      11 (Ag)      0.1686
               24      Vir  Alpha       5 (B2u)      0.0425
               23      Vir  Alpha       6 (B3u)      0.0425
               22      Vir  Beta        7 (Ag)      0.0360
               36      Vir  Beta        9 (Ag)      0.1490
               41      Vir  Beta       11 (Ag)      0.1686
               24      Vir  Beta        5 (B2u)      0.0425
               23      Vir  Beta        6 (B3u)      0.0425


 EOMEE transition 2/B3u
 Total energy = -220.91239474 a.u.  Excitation energy = 290.1300 eV.
 R0^2 = 0.0000  R1^2 = 0.8142  R2_CCVV^2 = 0.0004  R2_COVV^2 = 0.0927  Res^2 = 1.32e-06
 Conv-d = yes

 Amplitude    Transitions between orbitals
  0.4382       1 (B3u) A                 ->    7 (Ag) A                   
  0.4382       1 (B3u) B                 ->    7 (Ag) B                   
 -0.2080       1 (Ag) A                  ->    6 (B3u) A                  
 -0.2080       1 (Ag) B                  ->    6 (B3u) B                  
  0.1725       1 (B3u) A                 ->    11 (Ag) A                  
  0.1725       1 (B3u) B                 ->    11 (Ag) B                  
  0.1554       2 (Ag) A                  ->    6 (B3u) A                  
  0.1554       2 (Ag) B                  ->    6 (B3u) B                  
  0.1554       1 (B1g) A                 ->    5 (B2u) A                  
  0.1554       1 (B1g) B                 ->    5 (B2u) B                  
  0.1093       1 (B3u) A                 ->    9 (Ag) A                   
  0.1093       1 (B3u) B                 ->    9 (Ag) B                   

              Summary of significant orbitals:

               Number  Type             Irrep      Energy
               1       Occ  Alpha       1 (Ag)    -11.2421
               4       Occ  Alpha       2 (Ag)    -11.2403
               5       Occ  Alpha       1 (B1g)    -11.2403
               2       Occ  Alpha       1 (B3u)    -11.2416
               1       Occ  Beta        1 (Ag)    -11.2421
               4       Occ  Beta        2 (Ag)    -11.2403
               5       Occ  Beta        1 (B1g)    -11.2403
               2       Occ  Beta        1 (B3u)    -11.2416
               22      Vir  Alpha       7 (Ag)      0.0360
               36      Vir  Alpha       9 (Ag)      0.1490
               41      Vir  Alpha      11 (Ag)      0.1686
               24      Vir  Alpha       5 (B2u)      0.0425
               23      Vir  Alpha       6 (B3u)      0.0425
               22      Vir  Beta        7 (Ag)      0.0360
               36      Vir  Beta        9 (Ag)      0.1490
               41      Vir  Beta       11 (Ag)      0.1686
               24      Vir  Beta        5 (B2u)      0.0425
               23      Vir  Beta        6 (B3u)      0.0425


 EOMEE transition 3/B3u
 Total energy = -220.87358405 a.u.  Excitation energy = 291.1861 eV.
 R0^2 = 0.0000  R1^2 = 0.8011  R2_CCVV^2 = 0.0004  R2_COVV^2 = 0.0993  Res^2 = 6.91e-06
 Conv-d = yes

 Amplitude    Transitions between orbitals
 -0.3169       1 (B1g) A                 ->    5 (B2u) A                  
 -0.3169       1 (B1g) B                 ->    5 (B2u) B                  
 -0.3169       2 (Ag) A                  ->    6 (B3u) A                  
 -0.3169       2 (Ag) B                  ->    6 (B3u) B                  
 -0.2581       1 (Ag) A                  ->    6 (B3u) A                  
 -0.2581       1 (Ag) B                  ->    6 (B3u) B                  
 -0.2005       2 (B3u) A                 ->    8 (Ag) A                   
 -0.2005       2 (B3u) B                 ->    8 (Ag) B                   
  0.1486       1 (B3u) A                 ->    7 (Ag) A                   
  0.1486       1 (B3u) B                 ->    7 (Ag) B                   
  0.1045       2 (B3u) A                 ->    10 (Ag) A                  
  0.1045       2 (B3u) B                 ->    10 (Ag) B                  

              Summary of significant orbitals:

               Number  Type             Irrep      Energy
               1       Occ  Alpha       1 (Ag)    -11.2421
               4       Occ  Alpha       2 (Ag)    -11.2403
               5       Occ  Alpha       1 (B1g)    -11.2403
               2       Occ  Alpha       1 (B3u)    -11.2416
               6       Occ  Alpha       2 (B3u)    -11.2397
               1       Occ  Beta        1 (Ag)    -11.2421
               4       Occ  Beta        2 (Ag)    -11.2403
               5       Occ  Beta        1 (B1g)    -11.2403
               2       Occ  Beta        1 (B3u)    -11.2416
               6       Occ  Beta        2 (B3u)    -11.2397
               22      Vir  Alpha       7 (Ag)      0.0360
               25      Vir  Alpha       8 (Ag)      0.0575
               37      Vir  Alpha      10 (Ag)      0.1535
               24      Vir  Alpha       5 (B2u)      0.0425
               23      Vir  Alpha       6 (B3u)      0.0425
               22      Vir  Beta        7 (Ag)      0.0360
               25      Vir  Beta        8 (Ag)      0.0575
               37      Vir  Beta       10 (Ag)      0.1535
               24      Vir  Beta        5 (B2u)      0.0425
               23      Vir  Beta        6 (B3u)      0.0425


 EOMEE transition 4/B3u
 Total energy = -220.87296131 a.u.  Excitation energy = 291.2030 eV.
 R0^2 = 0.0000  R1^2 = 0.8004  R2_CCVV^2 = 0.0004  R2_COVV^2 = 0.0996  Res^2 = 6.90e-06
 Conv-d = yes

 Amplitude    Transitions between orbitals
  0.3770       2 (B3u) A                 ->    7 (Ag) A                   
  0.3770       2 (B3u) B                 ->    7 (Ag) B                   
  0.2663       2 (Ag) A                  ->    6 (B3u) A                  
  0.2663       2 (Ag) B                  ->    6 (B3u) B                  
 -0.2663       1 (B1g) A                 ->    5 (B2u) A                  
 -0.2663       1 (B1g) B                 ->    5 (B2u) B                  
  0.1370       2 (B3u) A                 ->    11 (Ag) A                  
  0.1370       2 (B3u) B                 ->    11 (Ag) B                  
  0.1358       1 (B2u) A                 ->    4 (B1g) A                  
  0.1358       1 (B2u) B                 ->    4 (B1g) B                  
 -0.1358       1 (B3u) A                 ->    8 (Ag) A                   
 -0.1358       1 (B3u) B                 ->    8 (Ag) B                   
 -0.1146       2 (B3u) A                 ->    9 (Ag) A                   
 -0.1146       2 (B3u) B                 ->    9 (Ag) B                   

              Summary of significant orbitals:

               Number  Type             Irrep      Energy
               4       Occ  Alpha       2 (Ag)    -11.2403
               5       Occ  Alpha       1 (B1g)    -11.2403
               3       Occ  Alpha       1 (B2u)    -11.2416
               2       Occ  Alpha       1 (B3u)    -11.2416
               6       Occ  Alpha       2 (B3u)    -11.2397
               4       Occ  Beta        2 (Ag)    -11.2403
               5       Occ  Beta        1 (B1g)    -11.2403
               3       Occ  Beta        1 (B2u)    -11.2416
               2       Occ  Beta        1 (B3u)    -11.2416
               6       Occ  Beta        2 (B3u)    -11.2397
               22      Vir  Alpha       7 (Ag)      0.0360
               25      Vir  Alpha       8 (Ag)      0.0575
               36      Vir  Alpha       9 (Ag)      0.1490
               41      Vir  Alpha      11 (Ag)      0.1686
               26      Vir  Alpha       4 (B1g)      0.0575
               24      Vir  Alpha       5 (B2u)      0.0425
               23      Vir  Alpha       6 (B3u)      0.0425
               22      Vir  Beta        7 (Ag)      0.0360
               25      Vir  Beta        8 (Ag)      0.0575
               36      Vir  Beta        9 (Ag)      0.1490
               41      Vir  Beta       11 (Ag)      0.1686
               26      Vir  Beta        4 (B1g)      0.0575
               24      Vir  Beta        5 (B2u)      0.0425
               23      Vir  Beta        6 (B3u)      0.0425


 EOMEE transition 5/B3u
 Total energy = -220.87146086 a.u.  Excitation energy = 291.2439 eV.
 R0^2 = 0.0000  R1^2 = 0.8004  R2_CCVV^2 = 0.0004  R2_COVV^2 = 0.0996  Res^2 = 9.73e-06
 Conv-d = yes

 Amplitude    Transitions between orbitals
  0.3829       1 (Ag) A                  ->    6 (B3u) A                  
  0.3829       1 (Ag) B                  ->    6 (B3u) B                  
  0.3522       1 (B3u) A                 ->    7 (Ag) A                   
  0.3522       1 (B3u) B                 ->    7 (Ag) B                   
  0.1360       1 (B3u) A                 ->    8 (Ag) A                   
  0.1360       1 (B3u) B                 ->    8 (Ag) B                   
  0.1360       1 (B2u) A                 ->    4 (B1g) A                  
  0.1360       1 (B2u) B                 ->    4 (B1g) B                  
  0.1286       1 (B3u) A                 ->    11 (Ag) A                  
  0.1286       1 (B3u) B                 ->    11 (Ag) B                  
 -0.1052       1 (B3u) A                 ->    9 (Ag) A                   
 -0.1052       1 (B3u) B                 ->    9 (Ag) B                   
  0.1042       1 (Ag) A                  ->    8 (B3u) A                  
  0.1042       1 (Ag) B                  ->    8 (B3u) B                  

              Summary of significant orbitals:

               Number  Type             Irrep      Energy
               1       Occ  Alpha       1 (Ag)    -11.2421
               3       Occ  Alpha       1 (B2u)    -11.2416
               2       Occ  Alpha       1 (B3u)    -11.2416
               1       Occ  Beta        1 (Ag)    -11.2421
               3       Occ  Beta        1 (B2u)    -11.2416
               2       Occ  Beta        1 (B3u)    -11.2416
               22      Vir  Alpha       7 (Ag)      0.0360
               25      Vir  Alpha       8 (Ag)      0.0575
               36      Vir  Alpha       9 (Ag)      0.1490
               41      Vir  Alpha      11 (Ag)      0.1686
               26      Vir  Alpha       4 (B1g)      0.0575
               23      Vir  Alpha       6 (B3u)      0.0425
               34      Vir  Alpha       8 (B3u)      0.1480
               22      Vir  Beta        7 (Ag)      0.0360
               25      Vir  Beta        8 (Ag)      0.0575
               36      Vir  Beta        9 (Ag)      0.1490
               41      Vir  Beta       11 (Ag)      0.1686
               26      Vir  Beta        4 (B1g)      0.0575
               23      Vir  Beta        6 (B3u)      0.0425
               34      Vir  Beta        8 (B3u)      0.1480


      CVS-EOM-CCSD/MP2 left amplitudes will be solved using Davidson.
        Amplitudes will be solved using MOM  algorithm.
     Hard-coded thresholds: 
     LinDepThresh=1.00e-15  NormThresh=1.00e-06  ReorthogonThresh=1.00e-02

      Roots     MaxVec    MaxIter   Precond   Conv      Shift    
      5         120       60        1         1.00e-05  0.00e+00  
 ------------------------------------------------------------------------------
      Iter ConvRoots NVecs ResNorm Current eigenvalues (eV)
 ------------------------------------------------------------------------------
      0    0      5     3.08e-02   290.0846   290.1300   291.1861   291.2030   291.2439   
      1    0      10    4.46e-03   290.0846   290.1299   291.1859   291.2028   291.2435   
      2    0      15    5.07e-04   290.0845   290.1299   291.1859   291.2028   291.2435   
      3    0      20    4.44e-05   290.0845   290.1299   291.1859   291.2028   291.2435   
      4    5      25    6.84e-06   290.0845*  290.1299*  291.1859*  291.2028*  291.2435*  

     Davidson procedure converged

 CVS-EOMEE-CCSD calculation:   CPU 8103.18 s  wall 4713.19 s


 Start computing the transition properties

 ------------------------------------------------------------------------------
 State A: ccsd: 0/Ag
 State B: cvs_eomee_ccsd/rhfref/singlets: 1/B1u
 Transition dipole moment (a.u.):
   A->B: 0.000001 (X 0.000000, Y 0.000000, Z 0.000001)
   B->A: 0.000001 (X 0.000000, Y 0.000000, Z 0.000001)
 Oscillator strength (a.u.): 0.000000
 Norm of one-particle transition density matrix:
   A->B: 0.889613;   B->A: 0.890563
   ||gamma^AB||*||gamma^BA||: 0.792256

 ------------------------------------------------------------------------------
 State A: ccsd: 0/Ag
 State B: cvs_eomee_ccsd/rhfref/singlets: 2/B1u
 Transition dipole moment (a.u.):
   A->B: 0.200224 (X 0.000000, Y 0.000000, Z -0.200224)
   B->A: 0.203995 (X 0.000000, Y 0.000000, Z -0.203995)
 Oscillator strength (a.u.): 0.288450
 Norm of one-particle transition density matrix:
   A->B: 0.889477;   B->A: 0.890271
   ||gamma^AB||*||gamma^BA||: 0.791875

 ------------------------------------------------------------------------------
 State A: ccsd: 0/Ag
 State B: cvs_eomee_ccsd/rhfref/singlets: 3/B1u
 Transition dipole moment (a.u.):
   A->B: 0.000000 (X 0.000000, Y 0.000000, Z 0.000000)
   B->A: 0.000000 (X 0.000000, Y 0.000000, Z 0.000000)
 Oscillator strength (a.u.): 0.000000
 Norm of one-particle transition density matrix:
   A->B: 0.868154;   B->A: 0.852708
   ||gamma^AB||*||gamma^BA||: 0.740282

 ------------------------------------------------------------------------------
 State A: ccsd: 0/Ag
 State B: cvs_eomee_ccsd/rhfref/singlets: 4/B1u
 Transition dipole moment (a.u.):
   A->B: 0.000000 (X 0.000000, Y 0.000000, Z 0.000000)
   B->A: 0.000000 (X 0.000000, Y 0.000000, Z 0.000000)
 Oscillator strength (a.u.): 0.000000
 Norm of one-particle transition density matrix:
   A->B: 0.899830;   B->A: 0.858929
   ||gamma^AB||*||gamma^BA||: 0.772890

 ------------------------------------------------------------------------------
 State A: ccsd: 0/Ag
 State B: cvs_eomee_ccsd/rhfref/singlets: 5/B1u
 Transition dipole moment (a.u.):
   A->B: 0.051163 (X 0.000000, Y 0.000000, Z -0.051163)
   B->A: 0.052161 (X 0.000000, Y 0.000000, Z -0.052161)
 Oscillator strength (a.u.): 0.019082
 Norm of one-particle transition density matrix:
   A->B: 0.899832;   B->A: 0.858905
   ||gamma^AB||*||gamma^BA||: 0.772870

 ------------------------------------------------------------------------------
 State A: ccsd: 0/Ag
 State B: cvs_eomee_ccsd/rhfref/singlets: 1/B2u
 Transition dipole moment (a.u.):
   A->B: 0.056730 (X 0.000000, Y 0.056730, Z 0.000000)
   B->A: 0.055817 (X 0.000000, Y 0.055817, Z 0.000000)
 Oscillator strength (a.u.): 0.022508
 Norm of one-particle transition density matrix:
   A->B: 0.902363;   B->A: 0.864843
   ||gamma^AB||*||gamma^BA||: 0.780402

 ------------------------------------------------------------------------------
 State A: ccsd: 0/Ag
 State B: cvs_eomee_ccsd/rhfref/singlets: 2/B2u
 Transition dipole moment (a.u.):
   A->B: 0.000000 (X 0.000000, Y 0.000000, Z 0.000000)
   B->A: 0.000000 (X 0.000000, Y 0.000000, Z 0.000000)
 Oscillator strength (a.u.): 0.000000
 Norm of one-particle transition density matrix:
   A->B: 0.896691;   B->A: 0.852853
   ||gamma^AB||*||gamma^BA||: 0.764745

 ------------------------------------------------------------------------------
 State A: ccsd: 0/Ag
 State B: cvs_eomee_ccsd/rhfref/singlets: 3/B2u
 Transition dipole moment (a.u.):
   A->B: 0.012358 (X 0.000000, Y -0.012358, Z 0.000000)
   B->A: 0.012236 (X 0.000000, Y -0.012236, Z 0.000000)
 Oscillator strength (a.u.): 0.001079
 Norm of one-particle transition density matrix:
   A->B: 0.896579;   B->A: 0.852738
   ||gamma^AB||*||gamma^BA||: 0.764548

 ------------------------------------------------------------------------------
 State A: ccsd: 0/Ag
 State B: cvs_eomee_ccsd/rhfref/singlets: 4/B2u
 Transition dipole moment (a.u.):
   A->B: 0.028995 (X 0.000000, Y 0.028995, Z 0.000000)
   B->A: 0.028560 (X 0.000000, Y 0.028560, Z 0.000000)
 Oscillator strength (a.u.): 0.005909
 Norm of one-particle transition density matrix:
   A->B: 0.896233;   B->A: 0.852209
   ||gamma^AB||*||gamma^BA||: 0.763778

 ------------------------------------------------------------------------------
 State A: ccsd: 0/Ag
 State B: cvs_eomee_ccsd/rhfref/singlets: 5/B2u
 Transition dipole moment (a.u.):
   A->B: 0.010518 (X 0.000000, Y -0.010518, Z 0.000000)
   B->A: 0.010404 (X 0.000000, Y -0.010404, Z 0.000000)
 Oscillator strength (a.u.): 0.000782
 Norm of one-particle transition density matrix:
   A->B: 0.895596;   B->A: 0.850676
   ||gamma^AB||*||gamma^BA||: 0.761862

 ------------------------------------------------------------------------------
 State A: ccsd: 0/Ag
 State B: cvs_eomee_ccsd/rhfref/singlets: 1/B3u
 Transition dipole moment (a.u.):
   A->B: 0.000000 (X 0.000000, Y 0.000000, Z 0.000000)
   B->A: 0.000000 (X 0.000000, Y 0.000000, Z 0.000000)
 Oscillator strength (a.u.): 0.000000
 Norm of one-particle transition density matrix:
   A->B: 0.902363;   B->A: 0.864861
   ||gamma^AB||*||gamma^BA||: 0.780419

 ------------------------------------------------------------------------------
 State A: ccsd: 0/Ag
 State B: cvs_eomee_ccsd/rhfref/singlets: 2/B3u
 Transition dipole moment (a.u.):
   A->B: 0.056888 (X -0.056888, Y 0.000000, Z 0.000000)
   B->A: 0.055905 (X -0.055905, Y 0.000000, Z 0.000000)
 Oscillator strength (a.u.): 0.022606
 Norm of one-particle transition density matrix:
   A->B: 0.902352;   B->A: 0.864857
   ||gamma^AB||*||gamma^BA||: 0.780406

 ------------------------------------------------------------------------------
 State A: ccsd: 0/Ag
 State B: cvs_eomee_ccsd/rhfref/singlets: 3/B3u
 Transition dipole moment (a.u.):
   A->B: 0.012758 (X 0.012758, Y 0.000000, Z 0.000000)
   B->A: 0.012427 (X 0.012427, Y 0.000000, Z 0.000000)
 Oscillator strength (a.u.): 0.001131
 Norm of one-particle transition density matrix:
   A->B: 0.896634;   B->A: 0.852768
   ||gamma^AB||*||gamma^BA||: 0.764621

 ------------------------------------------------------------------------------
 State A: ccsd: 0/Ag
 State B: cvs_eomee_ccsd/rhfref/singlets: 4/B3u
 Transition dipole moment (a.u.):
   A->B: 0.000000 (X 0.000000, Y 0.000000, Z 0.000000)
   B->A: 0.000000 (X 0.000000, Y 0.000000, Z 0.000000)
 Oscillator strength (a.u.): 0.000000
 Norm of one-particle transition density matrix:
   A->B: 0.896246;   B->A: 0.852230
   ||gamma^AB||*||gamma^BA||: 0.763808

 ------------------------------------------------------------------------------
 State A: ccsd: 0/Ag
 State B: cvs_eomee_ccsd/rhfref/singlets: 5/B3u
 Transition dipole moment (a.u.):
   A->B: 0.029642 (X 0.029642, Y 0.000000, Z 0.000000)
   B->A: 0.029115 (X 0.029115, Y 0.000000, Z 0.000000)
 Oscillator strength (a.u.): 0.006158
 Norm of one-particle transition density matrix:
   A->B: 0.896259;   B->A: 0.852232
   ||gamma^AB||*||gamma^BA||: 0.763821


 All requested transition properties have been computed

 Transition Properties:   CPU 47.57 s  wall 28.46 s

 Total ccman2 time:   CPU 8735.45 s  wall 5095.12 s


 --------------------------------------------------------------
             Orbital Energies (a.u.) and Symmetries
 --------------------------------------------------------------

 Alpha MOs, Restricted
 -- Occupied --                  
-11.242 -11.242 -11.242 -11.240 -11.240 -11.240  -1.153  -1.017
  1 Ag    1 B3u   1 B2u   2 Ag    1 B1g   2 B3u   3 Ag    3 B3u                
 -1.017  -0.826  -0.826  -0.711  -0.645  -0.620  -0.589  -0.589
  2 B2u   4 Ag    2 B1g   5 Ag    4 B3u   3 B2u   5 B3u   4 B2u                
 -0.502  -0.495  -0.495  -0.337  -0.337
  1 B1u   6 Ag    3 B1g   1 B2g   1 B3g                                        
 -- Virtual --                   
  0.036   0.043   0.043   0.057   0.057   0.076   0.108   0.108
  7 Ag    6 B3u   5 B2u   8 Ag    4 B1g   7 B3u   2 B1u   1 Au                 
  0.123   0.143   0.143   0.146   0.148   0.148   0.149   0.154
  3 B1u   2 B2g   2 B3g   6 B2u   8 B3u   7 B2u   9 Ag   10 Ag                 
  0.154   0.168   0.168   0.169   0.185   0.191   0.191   0.192
  5 B1g   9 B3u   8 B2u  11 Ag   10 B3u  12 Ag    6 B1g   3 B2g                
  0.199   0.199   0.267   0.302   0.302   0.313   0.313   0.327
  4 B1u   2 Au    7 B1g   9 B2u  11 B3u   8 B1g  13 Ag   14 Ag                 
  0.338   0.348   0.357   0.357   0.367   0.381   0.381   0.387
  5 B1u   4 B2g   9 B1g  15 Ag   12 B3u  13 B3u  10 B2u  11 B2u                
  0.412   0.428   0.428   0.431   0.431   0.443   0.443   0.505
 14 B3u   5 B2g   3 B3g  15 B3u  12 B2u  16 Ag   10 B1g  17 Ag                 
  0.505   0.505   0.565   0.573   0.575   0.575   0.592   0.592
  6 B1u   3 Au    4 B3g   6 B2g  13 B2u  16 B3u  11 B1g  18 Ag                 
  0.595   0.599   0.611   0.619   0.663   0.663   0.689   0.689
 12 B1g  19 Ag    7 B1u  20 Ag   17 B3u  14 B2u   4 Au    8 B1u                
  0.693   0.693   0.693   0.694   0.694   0.759   0.759   0.764
 13 B1g  21 Ag   18 B3u  19 B3u  15 B2u   7 B2g   5 B3g  16 B2u                
  0.773   0.779   0.779   0.839   0.857   0.857   0.859   0.891
 20 B3u  22 Ag   14 B1g   9 B1u  21 B3u  17 B2u  15 B1g  23 Ag                 
  0.891   0.923   0.923   0.928   0.928   0.962   0.975   0.975
 16 B1g   8 B2g   6 B3g  10 B1u   5 Au    9 B2g  17 B1g  24 Ag                 
  0.979   0.979   1.007   1.015   1.068   1.079   1.100   1.100
 10 B2g   7 B3g  22 B3u  25 Ag   23 B3u   6 Au   18 B2u  24 B3u                
  1.181   1.181   1.199   1.345   1.345   1.422   1.485   1.502
 11 B1u   7 Au   18 B1g  19 B2u  25 B3u   8 B3g  11 B2g  20 B2u                
  1.534   1.534   1.538   1.538   1.553   1.582   1.610   1.622
 21 B2u  26 B3u  19 B1g  26 Ag   12 B1u  27 B3u  27 Ag   28 B3u                
  1.622   1.638   1.638   1.643   1.709   1.709   1.714   1.714
 22 B2u  20 B1g  28 Ag   29 Ag    8 Au   13 B1u  12 B2g   9 B3g                
  1.790   1.790   1.791   1.832   1.896   1.896   1.912   1.933
 30 Ag   21 B1g  23 B2u  31 Ag   14 B1u   9 Au   32 Ag   22 B1g                
  1.952   1.952   1.970   1.970   1.987   1.991   2.090   2.107
 24 B2u  29 B3u  23 B1g  33 Ag   13 B2g  30 B3u  15 B1u  31 B3u                
  2.107   2.124   2.124   2.203   2.203   2.222   2.222   2.266
 25 B2u  14 B2g  10 B3g  11 B3g  15 B2g  24 B1g  34 Ag   26 B2u                
  2.266   2.297   2.363   2.374   2.374   2.399   2.454   2.454
 32 B3u  27 B2u  25 B1g  16 B1u  10 Au   33 B3u  35 Ag   26 B1g                
  2.622   2.682   2.793   2.793   2.793   2.793   2.804   2.972
 11 Au   16 B2g  36 Ag   27 B1g  28 B2u  34 B3u  37 Ag   29 B2u                
  2.972   2.981   3.146   3.146   3.158   3.158   3.388   3.564
 35 B3u  36 B3u  28 B1g  38 Ag   30 B2u  37 B3u  29 B1g  30 B1g                
  3.564   3.888   4.817
 39 Ag   38 B3u  39 B3u                                                        

 Beta MOs, Restricted
 -- Occupied --                  
-11.242 -11.242 -11.242 -11.240 -11.240 -11.240  -1.153  -1.017
  1 Ag    1 B3u   1 B2u   2 Ag    1 B1g   2 B3u   3 Ag    3 B3u                
 -1.017  -0.826  -0.826  -0.711  -0.645  -0.620  -0.589  -0.589
  2 B2u   4 Ag    2 B1g   5 Ag    4 B3u   3 B2u   5 B3u   4 B2u                
 -0.502  -0.495  -0.495  -0.337  -0.337
  1 B1u   6 Ag    3 B1g   1 B2g   1 B3g                                        
 -- Virtual --                   
  0.036   0.043   0.043   0.057   0.057   0.076   0.108   0.108
  7 Ag    6 B3u   5 B2u   8 Ag    4 B1g   7 B3u   2 B1u   1 Au                 
  0.123   0.143   0.143   0.146   0.148   0.148   0.149   0.154
  3 B1u   2 B2g   2 B3g   6 B2u   8 B3u   7 B2u   9 Ag   10 Ag                 
  0.154   0.168   0.168   0.169   0.185   0.191   0.191   0.192
  5 B1g   9 B3u   8 B2u  11 Ag   10 B3u  12 Ag    6 B1g   3 B2g                
  0.199   0.199   0.267   0.302   0.302   0.313   0.313   0.327
  4 B1u   2 Au    7 B1g   9 B2u  11 B3u   8 B1g  13 Ag   14 Ag                 
  0.338   0.348   0.357   0.357   0.367   0.381   0.381   0.387
  5 B1u   4 B2g   9 B1g  15 Ag   12 B3u  13 B3u  10 B2u  11 B2u                
  0.412   0.428   0.428   0.431   0.431   0.443   0.443   0.505
 14 B3u   5 B2g   3 B3g  15 B3u  12 B2u  16 Ag   10 B1g  17 Ag                 
  0.505   0.505   0.565   0.573   0.575   0.575   0.592   0.592
  6 B1u   3 Au    4 B3g   6 B2g  13 B2u  16 B3u  11 B1g  18 Ag                 
  0.595   0.599   0.611   0.619   0.663   0.663   0.689   0.689
 12 B1g  19 Ag    7 B1u  20 Ag   17 B3u  14 B2u   4 Au    8 B1u                
  0.693   0.693   0.693   0.694   0.694   0.759   0.759   0.764
 13 B1g  21 Ag   18 B3u  19 B3u  15 B2u   7 B2g   5 B3g  16 B2u                
  0.773   0.779   0.779   0.839   0.857   0.857   0.859   0.891
 20 B3u  22 Ag   14 B1g   9 B1u  21 B3u  17 B2u  15 B1g  23 Ag                 
  0.891   0.923   0.923   0.928   0.928   0.962   0.975   0.975
 16 B1g   8 B2g   6 B3g  10 B1u   5 Au    9 B2g  17 B1g  24 Ag                 
  0.979   0.979   1.007   1.015   1.068   1.079   1.100   1.100
 10 B2g   7 B3g  22 B3u  25 Ag   23 B3u   6 Au   18 B2u  24 B3u                
  1.181   1.181   1.199   1.345   1.345   1.422   1.485   1.502
 11 B1u   7 Au   18 B1g  19 B2u  25 B3u   8 B3g  11 B2g  20 B2u                
  1.534   1.534   1.538   1.538   1.553   1.582   1.610   1.622
 21 B2u  26 B3u  19 B1g  26 Ag   12 B1u  27 B3u  27 Ag   28 B3u                
  1.622   1.638   1.638   1.643   1.709   1.709   1.714   1.714
 22 B2u  20 B1g  28 Ag   29 Ag    8 Au   13 B1u  12 B2g   9 B3g                
  1.790   1.790   1.791   1.832   1.896   1.896   1.912   1.933
 30 Ag   21 B1g  23 B2u  31 Ag   14 B1u   9 Au   32 Ag   22 B1g                
  1.952   1.952   1.970   1.970   1.987   1.991   2.090   2.107
 24 B2u  29 B3u  23 B1g  33 Ag   13 B2g  30 B3u  15 B1u  31 B3u                
  2.107   2.124   2.124   2.203   2.203   2.222   2.222   2.266
 25 B2u  14 B2g  10 B3g  11 B3g  15 B2g  24 B1g  34 Ag   26 B2u                
  2.266   2.297   2.363   2.374   2.374   2.399   2.454   2.454
 32 B3u  27 B2u  25 B1g  16 B1u  10 Au   33 B3u  35 Ag   26 B1g                
  2.622   2.682   2.793   2.793   2.793   2.793   2.804   2.972
 11 Au   16 B2g  36 Ag   27 B1g  28 B2u  34 B3u  37 Ag   29 B2u                
  2.972   2.981   3.146   3.146   3.158   3.158   3.388   3.564
 35 B3u  36 B3u  28 B1g  38 Ag   30 B2u  37 B3u  29 B1g  30 B1g                
  3.564   3.888   4.817
 39 Ag   38 B3u  39 B3u                                                        
 --------------------------------------------------------------

          Ground-State Mulliken Net Atomic Charges

     Atom                 Charge (a.u.)
  ----------------------------------------
      1 H                    -0.439910
      2 C                     0.439904
      3 C                     0.439914
      4 H                    -0.439911
      5 C                     0.439914
      6 H                    -0.439911
      7 C                     0.439904
      8 H                    -0.439910
      9 C                     0.439914
     10 H                    -0.439911
     11 C                     0.439914
     12 H                    -0.439911
  ----------------------------------------
  Sum of atomic charges =     0.000000

 -----------------------------------------------------------------
                    Cartesian Multipole Moments
 -----------------------------------------------------------------
    Charge (ESU x 10^10)
                 0.0000
    Dipole Moment (Debye)
         X       0.0000      Y       0.0000      Z      -0.0000
       Tot       0.0000
    Quadrupole Moments (Debye-Ang)
        XX     -32.0069     XY      -0.0000     YY     -32.0069
        XZ       0.0000     YZ      -0.0000     ZZ     -41.2412
    Octopole Moments (Debye-Ang^2)
       XXX       0.0000    XXY       0.0000    XYY       0.0000
       YYY       0.0000    XXZ      -0.0000    XYZ       0.0000
       YYZ       0.0000    XZZ       0.0000    YZZ       0.0000
       ZZZ      -0.0000
    Hexadecapole Moments (Debye-Ang^3)
      XXXX    -272.1096   XXXY      -0.0000   XXYY     -90.7032
      XYYY      -0.0000   YYYY    -272.1096   XXXZ      -0.0000
      XXYZ      -0.0000   XYYZ       0.0000   YYYZ      -0.0000
      XXZZ     -65.9092   XYZZ      -0.0000   YYZZ     -65.9092
      XZZZ       0.0000   YZZZ      -0.0000   ZZZZ     -52.1685
 -----------------------------------------------------------------
Archival summary:
1\1\Annas-MacBook-Pro-3.local\SP\ProcedureUnspecified\BasisUnspecified\66\ThuSep610:42:002018ThuSep610:42:002018\0\\#,ProcedureUnspecified,BasisUnspecified,\\0,1\C\H,1,1.08144\C,1,1.39359,2,120\H,3,1.08144,1,120,2,-0,0\C,3,1.39359,1,120,2,180,0\H,5,1.08144,3,120,1,-180,0\C,5,1.39359,3,120,1,-0,0\H,7,1.08144,5,120,3,180,0\C,7,1.39359,5,120,3,0,0\H,9,1.08144,7,120,5,180,0\C,9,1.39359,7,120,5,-0,0\H,11,1.08144,9,120,7,180,0\\HF=-230.728261\\@

 Total job time:  5126.25s(wall), 8766.52s(cpu) 
 Thu Sep  6 10:42:00 2018

        *************************************************************
        *                                                           *
        *  Thank you very much for using Q-Chem.  Have a nice day.  *
        *                                                           *
        *************************************************************


