UX410U 127.0.1
Q-Chem Developer Version! Running on 127.0.1.*
                  Welcome to Q-Chem
     A Quantum Leap Into The Future Of Chemistry


 Q-Chem 5.1, Q-Chem, Inc., Pleasanton, CA (2018)

 Yihan Shao,  Zhengting Gan,  E. Epifanovsky,  A. T. B. Gilbert,  M. Wormit,  
 J. Kussmann,  A. W. Lange,  A. Behn,  Jia Deng,  Xintian Feng,  D. Ghosh,  
 M. Goldey,  P. R. Horn,  L. D. Jacobson,  I. Kaliman,  T. Kus,  A. Landau,  
 Jie Liu,  E. I. Proynov,  R. M. Richard,  R. P. Steele,  E. J. Sundstrom,  
 H. L. Woodcock III,  P. M. Zimmerman,  D. Zuev,  B. Albrecht,  E. Alguire,  
 S. A. Baeppler,  D. Barton,  Z. Benda,  Y. A. Bernard,  E. J. Berquist,  
 K. B. Bravaya,  H. Burton,  D. Casanova,  Chun-Min Chang,  Yunqing Chen,  
 A. Chien,  K. D. Closser,  M. P. Coons,  S. Coriani,  S. Dasgupta,  
 A. L. Dempwolff,  M. Diedenhofen,  Hainam Do,  R. G. Edgar,  Po-Tung Fang,  
 S. Faraji,  S. Fatehi,  Qingguo Feng,  K. D. Fenk,  J. Fosso-Tande,  
 Qinghui Ge,  A. Ghysels,  G. Gidofalvi,  J. Gomes,  J. Gonthier,  A. Gunina,  
 M. W. D. Hanson-Heine,  P. H. P. Harbach,  A. W. Hauser,  J. E. Herr,  
 E. G. Hohenstein,  Z. C. Holden,  Kerwin Hui,  T.-C. Jagau,  Hyunjun Ji,  
 B. Kaduk,  K. Khistyaev,  Jaehoon Kim,  P. Klunzinger,  K. Koh,  
 D. Kosenkov,  L. Koulias,  T. Kowalczyk,  C. M. Krauter,  A. Kunitsa,  
 Ka Un Lao,  A. Laurent,  K. V. Lawler,  Joonho Lee,  D. Lefrancois,  
 S. Lehtola,  D. S. Levine,  Yi-Pei Li,  You-Sheng Lin,  Fenglai Liu,  
 E. Livshits,  A. Luenser,  P. Manohar,  E. Mansoor,  S. F. Manzer,  
 Shan-Ping Mao,  Yuezhi Mao,  N. Mardirossian,  A. V. Marenich,  
 T. Markovich,  L. A. Martinez-Martinez,  S. A. Maurer,  N. J. Mayhall,  
 S. C. McKenzie,  J.-M. Mewes,  A. F. Morrison,  J. W. Mullinax,  K. Nanda,  
 T. S. Nguyen-Beck,  R. Olivares-Amaya,  J. A. Parkhill,  T. M. Perrine,  
 F. Plasser,  P. Pokhilko,  S. Prager,  A. Prociuk,  E. Ramos,  D. R. Rehn,  
 F. Rob,  M. Schneider,  N. Sergueev,  S. M. Sharada,  S. Sharma,  
 D. W. Small,  T. Stauch,  T. Stein,  Yu-Chuan Su,  A. J. W. Thom,  
 A. Tkatchenko,  T. Tsuchimochi,  N. M. Tubman,  L. Vogt,  M. L. Vidal,  
 O. Vydrov,  M. A. Watson,  J. Wenzel,  M. de Wergifosse,  T. A. Wesolowski,  
 A. White,  J. Witte,  A. Yamada,  Jun Yang,  K. Yao,  S. Yeganeh,  
 S. R. Yost,  Zhi-Qiang You,  A. Zech,  Igor Ying Zhang,  Xing Zhang,  
 Yan Zhao,  Ying Zhu,  B. R. Brooks,  G. K. L. Chan,  C. J. Cramer,  
 M. S. Gordon,  W. J. Hehre,  A. Klamt,  M. W. Schmidt,  C. D. Sherrill,  
 D. G. Truhlar,  A. Aspuru-Guzik,  R. Baer,  A. T. Bell,  N. A. Besley,  
 Jeng-Da Chai,  R. A. DiStasio Jr.,  A. Dreuw,  B. D. Dunietz,  
 T. R. Furlani,  Chao-Ping Hsu,  Yousung Jung,  Jing Kong,  D. S. Lambrecht,  
 WanZhen Liang,  C. Ochsenfeld,  V. A. Rassolov,  L. V. Slipchenko,  
 J. E. Subotnik,  T. Van Voorhis,  J. M. Herbert,  A. I. Krylov,  
 P. M. W. Gill,  M. Head-Gordon

 Contributors to earlier versions of Q-Chem not listed above: 
 R. D. Adamson,  B. Austin,  J. Baker,  G. J. O. Beran,  K. Brandhorst,  
 S. T. Brown,  E. F. C. Byrd,  A. K. Chakraborty,  C.-L. Cheng,  
 Siu Hung Chien,  D. M. Chipman,  D. L. Crittenden,  H. Dachsel,  
 R. J. Doerksen,  A. D. Dutoi,  L. Fusti-Molnar,  W. A. Goddard III,  
 A. Golubeva-Zadorozhnaya,  S. R. Gwaltney,  G. Hawkins,  A. Heyden,  
 S. Hirata,  G. Kedziora,  F. J. Keil,  C. Kelley,  Jihan Kim,  R. A. King,  
 R. Z. Khaliullin,  P. P. Korambath,  W. Kurlancheek,  A. M. Lee,  M. S. Lee,  
 S. V. Levchenko,  Ching Yeh Lin,  D. Liotard,  R. C. Lochan,  I. Lotan,  
 P. E. Maslen,  N. Nair,  D. P. O'Neill,  D. Neuhauser,  E. Neuscamman,  
 C. M. Oana,  R. Olson,  B. Peters,  R. Peverati,  P. A. Pieniazek,  
 Y. M. Rhee,  J. Ritchie,  M. A. Rohrdanz,  E. Rosta,  N. J. Russ,  
 H. F. Schaefer III,  N. E. Schultz,  N. Shenvi,  A. C. Simmonett,  A. Sodt,  
 D. Stuck,  K. S. Thanthiriwatte,  V. Vanovschi,  Tao Wang,  A. Warshel,  
 C. F. Williams,  Q. Wu,  X. Xu,  W. Zhang

 Please cite Q-Chem as follows:
 Y. Shao et al., Mol. Phys. 113, 184-215 (2015)
 DOI: 10.1080/00268976.2014.952696

 Q-Chem 5.1.0 for Intel X86 EM64T Linux

 Parts of Q-Chem use Armadillo 8.300.2 (Tropical Shenanigans).
 http://arma.sourceforge.net/

 Q-Chem begins on Thu Sep 27 16:45:43 2018  


Host: 0

     Scratch files written to benzene_xas_6311ppGss//
Core orbitals will be frozen

Checking the input file for inconsistencies... 	...done.

--------------------------------------------------------------
User input:
--------------------------------------------------------------
$comment
RI-MP2/cc-pVTZ optimized geometry. 
$end

$molecule
0 1
    H         2.4750347531    0.0000000000    0.0000000000
    C         1.3935929418    0.0000000000    0.0000000000
    C         0.6967964709    1.2068868901    0.0000000000
    H         1.2375173766    2.1434429715    0.0000000000
    C        -0.6967964709    1.2068868901    0.0000000000
    H        -1.2375173766    2.1434429715    0.0000000000
    C        -1.3935929418    0.0000000000    0.0000000000
    H        -2.4750347531    0.0000000000    0.0000000000
    C        -0.6967964709   -1.2068868901    0.0000000000
    H        -1.2375173766   -2.1434429715    0.0000000000
    C         0.6967964709   -1.2068868901    0.0000000000
    H         1.2375173766   -2.1434429715    0.0000000000
$end

$rem
   JOB_TYPE  =  SP
   BASIS  =  6-311++G**
   METHOD  =  EOM-CCSD
   CVS_EE_STATES = [0,0,0,0,0,5,5,5]
!   CC_MEMORY = 80000
   cc_trans_prop = 1
   PRINT_GENERAL_BASIS = true
$end
--------------------------------------------------------------
 Requested basis set is 6-311++G(d,p)
Basis set in general basis input format:
-----------------------------------------------------------------------
$basis
H    0
S    3    1.000000
   3.38650000E+01    2.54938000E-02 
   5.09479000E+00    1.90373000E-01 
   1.15879000E+00    8.52161000E-01 
S    1    1.000000
   3.25840000E-01    1.00000000E+00 
S    1    1.000000
   1.02741000E-01    1.00000000E+00 
S    1    1.000000
   3.60000000E-02    1.00000000E+00 
P    1    1.000000
   7.50000000E-01    1.00000000E+00 
****
C    0
S    6    1.000000
   4.56324000E+03    1.96665000E-03 
   6.82024000E+02    1.52306000E-02 
   1.54973000E+02    7.61269000E-02 
   4.44553000E+01    2.60801000E-01 
   1.30290000E+01    6.16462000E-01 
   1.82773000E+00    2.21006000E-01 
SP   3    1.000000
   2.09642000E+01    1.14660000E-01   4.02487000E-02 
   4.80331000E+00    9.19999000E-01   2.37594000E-01 
   1.45933000E+00   -3.03068000E-03   8.15854000E-01 
SP   1    1.000000
   4.83456000E-01    1.00000000E+00   1.00000000E+00 
SP   1    1.000000
   1.45585000E-01    1.00000000E+00   1.00000000E+00 
SP   1    1.000000
   4.38000000E-02    1.00000000E+00   1.00000000E+00 
D    1    1.000000
   6.26000000E-01    1.00000000E+00 
****
C    0
S    6    1.000000
   4.56324000E+03    1.96665000E-03 
   6.82024000E+02    1.52306000E-02 
   1.54973000E+02    7.61269000E-02 
   4.44553000E+01    2.60801000E-01 
   1.30290000E+01    6.16462000E-01 
   1.82773000E+00    2.21006000E-01 
SP   3    1.000000
   2.09642000E+01    1.14660000E-01   4.02487000E-02 
   4.80331000E+00    9.19999000E-01   2.37594000E-01 
   1.45933000E+00   -3.03068000E-03   8.15854000E-01 
SP   1    1.000000
   4.83456000E-01    1.00000000E+00   1.00000000E+00 
SP   1    1.000000
   1.45585000E-01    1.00000000E+00   1.00000000E+00 
SP   1    1.000000
   4.38000000E-02    1.00000000E+00   1.00000000E+00 
D    1    1.000000
   6.26000000E-01    1.00000000E+00 
****
H    0
S    3    1.000000
   3.38650000E+01    2.54938000E-02 
   5.09479000E+00    1.90373000E-01 
   1.15879000E+00    8.52161000E-01 
S    1    1.000000
   3.25840000E-01    1.00000000E+00 
S    1    1.000000
   1.02741000E-01    1.00000000E+00 
S    1    1.000000
   3.60000000E-02    1.00000000E+00 
P    1    1.000000
   7.50000000E-01    1.00000000E+00 
****
C    0
S    6    1.000000
   4.56324000E+03    1.96665000E-03 
   6.82024000E+02    1.52306000E-02 
   1.54973000E+02    7.61269000E-02 
   4.44553000E+01    2.60801000E-01 
   1.30290000E+01    6.16462000E-01 
   1.82773000E+00    2.21006000E-01 
SP   3    1.000000
   2.09642000E+01    1.14660000E-01   4.02487000E-02 
   4.80331000E+00    9.19999000E-01   2.37594000E-01 
   1.45933000E+00   -3.03068000E-03   8.15854000E-01 
SP   1    1.000000
   4.83456000E-01    1.00000000E+00   1.00000000E+00 
SP   1    1.000000
   1.45585000E-01    1.00000000E+00   1.00000000E+00 
SP   1    1.000000
   4.38000000E-02    1.00000000E+00   1.00000000E+00 
D    1    1.000000
   6.26000000E-01    1.00000000E+00 
****
H    0
S    3    1.000000
   3.38650000E+01    2.54938000E-02 
   5.09479000E+00    1.90373000E-01 
   1.15879000E+00    8.52161000E-01 
S    1    1.000000
   3.25840000E-01    1.00000000E+00 
S    1    1.000000
   1.02741000E-01    1.00000000E+00 
S    1    1.000000
   3.60000000E-02    1.00000000E+00 
P    1    1.000000
   7.50000000E-01    1.00000000E+00 
****
C    0
S    6    1.000000
   4.56324000E+03    1.96665000E-03 
   6.82024000E+02    1.52306000E-02 
   1.54973000E+02    7.61269000E-02 
   4.44553000E+01    2.60801000E-01 
   1.30290000E+01    6.16462000E-01 
   1.82773000E+00    2.21006000E-01 
SP   3    1.000000
   2.09642000E+01    1.14660000E-01   4.02487000E-02 
   4.80331000E+00    9.19999000E-01   2.37594000E-01 
   1.45933000E+00   -3.03068000E-03   8.15854000E-01 
SP   1    1.000000
   4.83456000E-01    1.00000000E+00   1.00000000E+00 
SP   1    1.000000
   1.45585000E-01    1.00000000E+00   1.00000000E+00 
SP   1    1.000000
   4.38000000E-02    1.00000000E+00   1.00000000E+00 
D    1    1.000000
   6.26000000E-01    1.00000000E+00 
****
H    0
S    3    1.000000
   3.38650000E+01    2.54938000E-02 
   5.09479000E+00    1.90373000E-01 
   1.15879000E+00    8.52161000E-01 
S    1    1.000000
   3.25840000E-01    1.00000000E+00 
S    1    1.000000
   1.02741000E-01    1.00000000E+00 
S    1    1.000000
   3.60000000E-02    1.00000000E+00 
P    1    1.000000
   7.50000000E-01    1.00000000E+00 
****
C    0
S    6    1.000000
   4.56324000E+03    1.96665000E-03 
   6.82024000E+02    1.52306000E-02 
   1.54973000E+02    7.61269000E-02 
   4.44553000E+01    2.60801000E-01 
   1.30290000E+01    6.16462000E-01 
   1.82773000E+00    2.21006000E-01 
SP   3    1.000000
   2.09642000E+01    1.14660000E-01   4.02487000E-02 
   4.80331000E+00    9.19999000E-01   2.37594000E-01 
   1.45933000E+00   -3.03068000E-03   8.15854000E-01 
SP   1    1.000000
   4.83456000E-01    1.00000000E+00   1.00000000E+00 
SP   1    1.000000
   1.45585000E-01    1.00000000E+00   1.00000000E+00 
SP   1    1.000000
   4.38000000E-02    1.00000000E+00   1.00000000E+00 
D    1    1.000000
   6.26000000E-01    1.00000000E+00 
****
H    0
S    3    1.000000
   3.38650000E+01    2.54938000E-02 
   5.09479000E+00    1.90373000E-01 
   1.15879000E+00    8.52161000E-01 
S    1    1.000000
   3.25840000E-01    1.00000000E+00 
S    1    1.000000
   1.02741000E-01    1.00000000E+00 
S    1    1.000000
   3.60000000E-02    1.00000000E+00 
P    1    1.000000
   7.50000000E-01    1.00000000E+00 
****
C    0
S    6    1.000000
   4.56324000E+03    1.96665000E-03 
   6.82024000E+02    1.52306000E-02 
   1.54973000E+02    7.61269000E-02 
   4.44553000E+01    2.60801000E-01 
   1.30290000E+01    6.16462000E-01 
   1.82773000E+00    2.21006000E-01 
SP   3    1.000000
   2.09642000E+01    1.14660000E-01   4.02487000E-02 
   4.80331000E+00    9.19999000E-01   2.37594000E-01 
   1.45933000E+00   -3.03068000E-03   8.15854000E-01 
SP   1    1.000000
   4.83456000E-01    1.00000000E+00   1.00000000E+00 
SP   1    1.000000
   1.45585000E-01    1.00000000E+00   1.00000000E+00 
SP   1    1.000000
   4.38000000E-02    1.00000000E+00   1.00000000E+00 
D    1    1.000000
   6.26000000E-01    1.00000000E+00 
****
H    0
S    3    1.000000
   3.38650000E+01    2.54938000E-02 
   5.09479000E+00    1.90373000E-01 
   1.15879000E+00    8.52161000E-01 
S    1    1.000000
   3.25840000E-01    1.00000000E+00 
S    1    1.000000
   1.02741000E-01    1.00000000E+00 
S    1    1.000000
   3.60000000E-02    1.00000000E+00 
P    1    1.000000
   7.50000000E-01    1.00000000E+00 
****
$end
-----------------------------------------------------------------------
 There are 66 shells and 174 basis functions
 Total memory of 2000MB is distributed as follows: 
   QALLOC including MEM_STATIC uses 192MB
   MEM_STATIC is set to 192MB
   CCMAN JOB total memory use is  1808MB
 Warning: actual memory use might exceed 2000MB

 Total QAlloc Memory Limit    192 MB
 Mega-Array Size       188 MB
 MEM_STATIC part       192 MB
 Smallest overlap matrix eigenvalue = 1.06E-06

 Scale SEOQF with 1.000000e-01/1.000000e-01/1.000000e-01

 Standard Electronic Orientation quadrupole field applied
 Nucleus-field energy     =     0.0000000057 hartrees
 Guess from superposition of atomic densities
 Warning:  Energy on first SCF cycle will be non-variational
 SAD guess density has 42.000000 electrons

 -----------------------------------------------------------------------
  General SCF calculation program by
  Eric Jon Sundstrom, Paul Horn, Yuezhi Mao, Dmitri Zuev, Alec White,
  David Stuck, Shaama M.S., Shane Yost, Joonho Lee, David Small,
  Daniel Levine, Susi Lehtola, Hugh Burton, Evgeny Epifanovsky
 -----------------------------------------------------------------------
 Hartree-Fock
 A restricted SCF calculation will be
 performed using DIIS
 SCF converges when DIIS error is below 1.0e-08
 ---------------------------------------
  Cycle       Energy         DIIS error
 ---------------------------------------
    1    -233.2567333622      5.19e-02  
    2    -230.6921779559      3.32e-03  
    3    -230.7514075987      9.06e-04  
    4    -230.7558598562      3.48e-04  
    5    -230.7563619625      3.45e-05  
    6    -230.7563726327      6.38e-06  
    7    -230.7563731188      1.85e-06  
    8    -230.7563731650      1.93e-07  
    9    -230.7563731637      2.47e-08  
   10    -230.7563731734      3.57e-09  Convergence criterion met
 ---------------------------------------
 SCF time:   CPU 6.72s  wall 6.00s 
 SCF   energy in the final basis set =     -230.7563731734


 ------------------------------------------------------------------------------

   CCMAN2: suite of methods based on coupled cluster
           and equation of motion theories.

   Components:
   * libvmm-1.3-trunk
     by Evgeny Epifanovsky, Ilya Kaliman.
   * libtensor-2.5-trunk
     by Evgeny Epifanovsky, Michael Wormit, Dmitry Zuev, Sam Manzer, 
        Ilya Kaliman.
   * libcc-2.5-trunk
     by Evgeny Epifanovsky, Arik Landau, Tomasz Kus, Kirill Khistyaev, 
        Dmitry Zuev, Prashant Manohar, Xintian Feng, Anna Krylov, 
        Matthew Goldey, Alec White, Thomas Jagau, Kaushik Nanda, 
        Anastasia Gunina, Alexander Kunitsa, Joonho Lee.

   CCMAN original authors:
   Anna I. Krylov, C. David Sherrill, Steven R. Gwaltney,
   Edward F. C. Byrd (2000)
   Sergey V. Levchenko, Lyudmila V. Slipchenko, Tao Wang,
   Ana-Maria C. Cristian (2003)
   Piotr A. Pieniazek, C. Melania Oana, Evgeny Epifanovsky (2007)
   Prashant Manohar (2009)

 ------------------------------------------------------------------------------


 Calculation will run on 1 core with 1808MB of RAM.

 ----------------------------------------------------------------
             Standard Nuclear Orientation (Angstroms)
    I     Atom           X                Y                Z
 ----------------------------------------------------------------
    1      H       2.4750347531     0.0000000000    -0.0000000000
    2      C       1.3935929418     0.0000000000    -0.0000000000
    3      C       0.6967964709     1.2068868901     0.0000000000
    4      H       1.2375173766     2.1434429715     0.0000000000
    5      C      -0.6967964709     1.2068868901     0.0000000000
    6      H      -1.2375173766     2.1434429715     0.0000000000
    7      C      -1.3935929418     0.0000000000     0.0000000000
    8      H      -2.4750347531     0.0000000000     0.0000000000
    9      C      -0.6967964709    -1.2068868901    -0.0000000000
   10      H      -1.2375173766    -2.1434429715    -0.0000000000
   11      C       0.6967964709    -1.2068868901    -0.0000000000
   12      H       1.2375173766    -2.1434429715    -0.0000000000
 ----------------------------------------------------------------
 Molecular Point Group                 D2h   NOp =  8
 Largest Abelian Subgroup              D2h   NOp =  8
 Nuclear Repulsion Energy =   203.7187449024 hartrees
 There are       21 alpha and       21 beta electrons

                       Distance Matrix (Angstroms)
             H (  1)   C (  2)   C (  3)   H (  4)   C (  5)   H (  6)
   C (  2)  1.081442
   C (  3)  2.149118  1.393593
   H (  4)  2.475035  2.149118  1.081442
   C (  5)  3.393684  2.413774  1.393593  2.149118
   H (  6)  4.286886  3.393684  2.149118  2.475035  1.081442
   C (  7)  3.868628  2.787186  2.413774  3.393684  1.393593  2.149118
   H (  8)  4.950070  3.868628  3.393684  4.286886  2.149118  2.475035
   C (  9)  3.393684  2.413774  2.787186  3.868628  2.413774  3.393684
   H ( 10)  4.286886  3.393684  3.868628  4.950070  3.393684  4.286886
   C ( 11)  2.149118  1.393593  2.413774  3.393684  2.787186  3.868628
   H ( 12)  2.475035  2.149118  3.393684  4.286886  3.868628  4.950070
             C (  7)   H (  8)   C (  9)   H ( 10)   C ( 11)
   H (  8)  1.081442
   C (  9)  1.393593  2.149118
   H ( 10)  2.149118  2.475035  1.081442
   C ( 11)  2.413774  3.393684  1.393593  2.149118
   H ( 12)  3.393684  4.286886  2.149118  2.475035  1.081442

 A cutoff of  1.0D-14 yielded   2181 shell pairs
 There are     15363 function pairs (     16458 Cartesian)

 Alpha MOs, Restricted
 -- Occupied --                  
-11.238 -11.238 -11.238 -11.236 -11.236 -11.236  -1.153  -1.017
  1 Ag    1 B3u   1 B2u   2 Ag    1 B1g   2 B3u   3 Ag    3 B3u                
 -1.017  -0.826  -0.826  -0.712  -0.645  -0.621  -0.590  -0.590
  2 B2u   4 Ag    2 B1g   5 Ag    4 B3u   3 B2u   5 B3u   4 B2u                
 -0.502  -0.496  -0.496  -0.337  -0.337
  1 B1u   6 Ag    3 B1g   1 B2g   1 B3g                                        
 -- Virtual --                   
  0.042   0.049   0.049   0.066   0.066   0.088   0.109   0.109
  7 Ag    6 B3u   5 B2u   8 Ag    4 B1g   7 B3u   2 B1u   1 Au                 
  0.129   0.153   0.153   0.158   0.163   0.181   0.181   0.183
  3 B1u   2 B2g   2 B3g   9 Ag    6 B2u   5 B1g  10 Ag    8 B3u                
  0.183   0.193   0.209   0.212   0.212   0.216   0.216   0.217
  7 B2u  11 Ag    3 B2g  12 Ag    6 B1g   4 B1u   2 Au    9 B3u                
  0.228   0.228   0.250   0.250   0.289   0.289   0.303   0.333
 10 B3u   8 B2u   9 B2u  11 B3u  13 Ag    7 B1g   8 B1g  12 B3u                
  0.335   0.369   0.409   0.409   0.430   0.430   0.441   0.499
 14 Ag    4 B2g  13 B3u  10 B2u  15 Ag    9 B1g  14 B3u  16 Ag                 
  0.499   0.509   0.509   0.604   0.610   0.715   0.723   0.723
 10 B1g  15 B3u  11 B2u  12 B2u  17 Ag    5 B1u  16 B3u  13 B2u                
  0.729   0.751   0.751   0.752   0.758   0.758   0.797   0.820
 17 B3u  18 Ag   11 B1g  12 B1g   5 B2g   3 B3g  19 Ag    6 B1u                
  0.820   0.886   0.940   0.940   0.952   0.952   0.976   1.016
  3 Au    6 B2g  18 B3u  14 B2u  20 Ag   13 B1g  21 Ag   19 B3u                
  1.016   1.017   1.059   1.059   1.108   1.122   1.122   1.131
 15 B2u  20 B3u  22 Ag   14 B1g  21 B3u  22 B3u  16 B2u  15 B1g                
  1.170   1.219   1.219   1.250   1.324   1.324   1.392   1.392
  7 B1u  23 Ag   16 B1g   4 B3g   7 B2g   5 B3g   8 B1u   4 Au                 
  1.524   1.557   1.711   1.787   1.787   1.796   1.827   1.846
 23 B3u  24 Ag   17 B2u  24 B3u  18 B2u  25 Ag    8 B2g   9 B1u                
  1.846   1.908   1.908   1.934   1.934   1.992   2.056   2.056
  5 Au   17 B1g  26 Ag   19 B2u  25 B3u  10 B1u   9 B2g   6 B3g                
  2.104   2.104   2.132   2.237   2.237   2.239   2.249   2.249
 27 Ag   18 B1g  20 B2u   7 B3g  10 B2g  19 B1g  26 B3u  21 B2u                
  2.299   2.348   2.348   2.380   2.380   2.641   2.664   2.744
 27 B3u  20 B1g  28 Ag   11 B1u   6 Au   11 B2g   7 Au   29 Ag                 
  2.744   2.746   2.817   2.817   2.964   2.964   2.988   2.996
 21 B1g  30 Ag   28 B3u  22 B2u  23 B2u  29 B3u  31 Ag   30 B3u                
  3.022   3.022   3.045   3.045   3.058   3.088   3.192   3.192
 31 B3u  24 B2u  32 Ag   22 B1g  12 B1u  32 B3u  12 B2g   8 B3g                
  3.268   3.294   3.294   3.331   3.331   3.482   3.550   3.777
 23 B1g  13 B1u   8 Au   33 Ag   24 B1g  13 B2g  25 B2u  25 B1g                
  3.777   3.908   3.908   3.922   4.084   4.410   4.410   4.501
 34 Ag   33 B3u  26 B2u  35 Ag   34 B3u  36 Ag   26 B1g  35 B3u                
  4.576   4.576   5.279  24.752  25.139  25.139  25.262  25.262
 36 B3u  27 B2u  27 B1g  37 Ag   37 B3u  28 B2u  38 Ag   28 B1g                
 25.374
 38 B3u                                                                        

 Beta MOs, Restricted
 -- Occupied --                  
-11.238 -11.238 -11.238 -11.236 -11.236 -11.236  -1.153  -1.017
  1 Ag    1 B3u   1 B2u   2 Ag    1 B1g   2 B3u   3 Ag    3 B3u                
 -1.017  -0.826  -0.826  -0.712  -0.645  -0.621  -0.590  -0.590
  2 B2u   4 Ag    2 B1g   5 Ag    4 B3u   3 B2u   5 B3u   4 B2u                
 -0.502  -0.496  -0.496  -0.337  -0.337
  1 B1u   6 Ag    3 B1g   1 B2g   1 B3g                                        
 -- Virtual --                   
  0.042   0.049   0.049   0.066   0.066   0.088   0.109   0.109
  7 Ag    6 B3u   5 B2u   8 Ag    4 B1g   7 B3u   2 B1u   1 Au                 
  0.129   0.153   0.153   0.158   0.163   0.181   0.181   0.183
  3 B1u   2 B2g   2 B3g   9 Ag    6 B2u   5 B1g  10 Ag    8 B3u                
  0.183   0.193   0.209   0.212   0.212   0.216   0.216   0.217
  7 B2u  11 Ag    3 B2g  12 Ag    6 B1g   4 B1u   2 Au    9 B3u                
  0.228   0.228   0.250   0.250   0.289   0.289   0.303   0.333
 10 B3u   8 B2u   9 B2u  11 B3u  13 Ag    7 B1g   8 B1g  12 B3u                
  0.335   0.369   0.409   0.409   0.430   0.430   0.441   0.499
 14 Ag    4 B2g  13 B3u  10 B2u  15 Ag    9 B1g  14 B3u  16 Ag                 
  0.499   0.509   0.509   0.604   0.610   0.715   0.723   0.723
 10 B1g  15 B3u  11 B2u  12 B2u  17 Ag    5 B1u  16 B3u  13 B2u                
  0.729   0.751   0.751   0.752   0.758   0.758   0.797   0.820
 17 B3u  18 Ag   11 B1g  12 B1g   5 B2g   3 B3g  19 Ag    6 B1u                
  0.820   0.886   0.940   0.940   0.952   0.952   0.976   1.016
  3 Au    6 B2g  18 B3u  14 B2u  20 Ag   13 B1g  21 Ag   19 B3u                
  1.016   1.017   1.059   1.059   1.108   1.122   1.122   1.131
 15 B2u  20 B3u  22 Ag   14 B1g  21 B3u  22 B3u  16 B2u  15 B1g                
  1.170   1.219   1.219   1.250   1.324   1.324   1.392   1.392
  7 B1u  23 Ag   16 B1g   4 B3g   7 B2g   5 B3g   8 B1u   4 Au                 
  1.524   1.557   1.711   1.787   1.787   1.796   1.827   1.846
 23 B3u  24 Ag   17 B2u  24 B3u  18 B2u  25 Ag    8 B2g   9 B1u                
  1.846   1.908   1.908   1.934   1.934   1.992   2.056   2.056
  5 Au   17 B1g  26 Ag   19 B2u  25 B3u  10 B1u   9 B2g   6 B3g                
  2.104   2.104   2.132   2.237   2.237   2.239   2.249   2.249
 27 Ag   18 B1g  20 B2u   7 B3g  10 B2g  19 B1g  26 B3u  21 B2u                
  2.299   2.348   2.348   2.380   2.380   2.641   2.664   2.744

 Occupation and symmetry of molecular orbitals

 Point group: D2h (8 irreducible representations).

                           Ag   B1g  B2g  B3g  Au   B1u  B2u  B3u   All 
 ------------------------------------------------------------------------
 All molecular orbitals:
  - Alpha                  38   28   13   8    8    13   28   38    174 
  - Beta                   38   28   13   8    8    13   28   38    174 
 ------------------------------------------------------------------------
 Alpha orbitals:
  - Frozen occupied        2    1    0    0    0    0    1    2     6   
  - Active occupied        4    2    1    1    0    1    3    3     15  
  - Active virtual         32   25   12   7    8    12   24   33    153 
  - Frozen virtual         0    0    0    0    0    0    0    0     0   
 ------------------------------------------------------------------------
 Beta orbitals:
  - Frozen occupied        2    1    0    0    0    0    1    2     6   
  - Active occupied        4    2    1    1    0    1    3    3     15  
  - Active virtual         32   25   12   7    8    12   24   33    153 
  - Frozen virtual         0    0    0    0    0    0    0    0     0   
 ------------------------------------------------------------------------

 Import integrals:   CPU 0.00 s  wall 0.00 s

 Import integrals:   CPU 200.86 s  wall 291.54 s

 MP2 amplitudes:   CPU 7.79 s  wall 7.84 s

           CCSD T amplitudes will be solved using DIIS.

           Start     Size      MaxIter   EConv     TConv     
           3         7         100       1.00e-06  1.00e-04  
 ------------------------------------------------------------------------------
           Energy (a.u.)   Ediff      Tdiff       Comment
 ------------------------------------------------------------------------------
          -231.58390200                           
     1    -231.58819238   4.29e-03   9.14e-01     
     2    -231.61353924   2.53e-02   1.24e-01     
     3    -231.61447942   9.40e-04   4.25e-02     
     4    -231.61697881   2.50e-03   1.33e-02     Switched to DIIS steps.
     5    -231.61788003   9.01e-04   1.11e-02     
     6    -231.61788893   8.89e-06   2.18e-03     
     7    -231.61787976   9.17e-06   6.67e-04     
     8    -231.61787943   3.25e-07   1.56e-04     
     9    -231.61787928   1.58e-07   3.84e-05     
 ------------------------------------------------------------------------------
          -231.61787928                           CCSD T converged.

 SCF energy                 = -230.75637317
 MP2 energy                 = -231.58390200
 CCSD correlation energy     =   -0.86150610
 CCSD total energy           = -231.61787928

 CCSD  T1^2 = 0.0064  T2^2 = 0.3406  Leading amplitudes:

 Amplitude    Orbitals with energies
  0.0223       1 (B2g) A                 ->    5 (B2g) A                  
              -0.3372                          0.7576                     
  0.0223       1 (B2g) B                 ->    5 (B2g) B                  
              -0.3372                          0.7576                     
 -0.0223       1 (B3g) A                 ->    3 (B3g) A                  
              -0.3372                          0.7576                     
 -0.0223       1 (B3g) B                 ->    3 (B3g) B                  
              -0.3372                          0.7576                     

 Amplitude    Orbitals with energies
 -0.0622       1 (B2g) A     1 (B2g) B   ->    2 (B1u) A     2 (B1u) B    
              -0.3372       -0.3372            0.1094        0.1094       
  0.0622       1 (B2g) A     1 (B2g) B   ->    2 (B1u) B     2 (B1u) A    
              -0.3372       -0.3372            0.1094        0.1094       
  0.0622       1 (B2g) B     1 (B2g) A   ->    2 (B1u) A     2 (B1u) B    
              -0.3372       -0.3372            0.1094        0.1094       
 -0.0622       1 (B2g) B     1 (B2g) A   ->    2 (B1u) B     2 (B1u) A    
              -0.3372       -0.3372            0.1094        0.1094       
 -0.0622       1 (B3g) A     1 (B3g) B   ->    1 (Au) A      1 (Au) B     
              -0.3372       -0.3372            0.1094        0.1094       
  0.0622       1 (B3g) A     1 (B3g) B   ->    1 (Au) B      1 (Au) A     
              -0.3372       -0.3372            0.1094        0.1094       
  0.0622       1 (B3g) B     1 (B3g) A   ->    1 (Au) A      1 (Au) B     
              -0.3372       -0.3372            0.1094        0.1094       
 -0.0622       1 (B3g) B     1 (B3g) A   ->    1 (Au) B      1 (Au) A     
              -0.3372       -0.3372            0.1094        0.1094       

 Computing CCSD intermediates for later calculations
 Finished.

           CCSD Lambda amplitudes will be solved using DIIS.
           Start     Size      MaxIter   EConv     LConv     
           3         7         100       1.00e-06  1.00e-04  
 ------------------------------------------------------------------------------
            Enorm      Ldiff       Comment
 ------------------------------------------------------------------------------
     1     5.31e-02   4.35e-02     
     2     8.79e-03   6.02e-04     
     3     3.01e-03   1.80e-03     
     4     1.12e-03   2.47e-04     Switched to DIIS steps.
     5     3.17e-04   3.07e-04     
     6     9.95e-05   6.26e-05     
     7     3.15e-05   1.71e-05     
     8     8.30e-06   4.76e-06     
     9     2.53e-06   8.86e-07     
    10     8.49e-07   2.21e-07     
 ------------------------------------------------------------------------------
                                   CCSD Lambda converged.

 CCSD calculation:   CPU 389.88 s  wall 476.12 s

        Solving for CVS-EOMEE-CCSD B1u singlet states.

        CVS-EOMEE-CCSD/MP2 right amplitudes will be solved using Davidson.
        Amplitudes will be solved using standard  algorithm.
     Hard-coded thresholds: 
     LinDepThresh=1.00e-15  NormThresh=1.00e-06  ReorthogonThresh=1.00e-02

      Roots     MaxVec    MaxIter   Precond   Conv      Shift    
      5         60        60        1         1.00e-05  0.00e+00  
 ------------------------------------------------------------------------------
      Iter ConvRoots NVecs ResNorm Current eigenvalues (eV)
 ------------------------------------------------------------------------------
      0    0      5     1.96e+00   301.6426   301.6561   303.1880   304.5267   304.5761   
      1    0      10    1.27e+00   298.4838   298.4979   299.9454   301.5258   301.5805   
      2    0      15    1.06e-01   288.0367   288.0401   288.8696   290.8481   290.9098   
      3    0      20    1.15e-02   286.9691   286.9715   288.2139   290.2632   290.3223   
      4    0      25    1.30e-02   286.6257   286.6336   288.1005   290.2071   290.2655   
      5    0      30    4.71e-03   286.3749   286.3847   287.9462   290.1566   290.2146   
      6    0      35    1.95e-03   286.3234   286.3332   287.8963   290.1010   290.1579   
      7    0      40    1.14e-03   286.3139   286.3238   287.8877   290.0560   290.1110   
      8    0      45    4.96e-04   286.3116   286.3216   287.8862   290.0279   290.0816   
      9    0      50    1.70e-04   286.3107   286.3207   287.8860   290.0100   290.0630   
      10   2      55    2.96e-05   286.3105*  286.3205*  287.8849   290.0054   290.0583   
      11   5      58    6.07e-06   286.3105*  286.3205*  287.8852*  290.0049*  290.0578*  

     Davidson procedure converged

 EOMEE transition 1/B1u
 Total energy = -221.09616214 a.u.  Excitation energy = 286.3105 eV.
 R0^2 = 0.0000  R1^2 = 0.8346  R2_CCVV^2 = 0.0013  R2_COVV^2 = 0.0820  Res^2 = 3.36e-06
 Conv-d = yes

 Amplitude    Transitions between orbitals
 -0.3766       1 (Ag) A                  ->    2 (B1u) A                  
 -0.3766       1 (Ag) B                  ->    2 (B1u) B                  
 -0.2763       2 (Ag) A                  ->    2 (B1u) A                  
 -0.2763       2 (Ag) B                  ->    2 (B1u) B                  
  0.2763       1 (B1g) A                 ->    1 (Au) A                   
  0.2763       1 (B1g) B                 ->    1 (Au) B                   
 -0.1840       1 (Ag) A                  ->    4 (B1u) A                  
 -0.1840       1 (Ag) B                  ->    4 (B1u) B                  
  0.1743       1 (B3u) A                 ->    4 (B2g) A                  
  0.1743       1 (B3u) B                 ->    4 (B2g) B                  
 -0.1342       2 (Ag) A                  ->    4 (B1u) A                  
 -0.1342       2 (Ag) B                  ->    4 (B1u) B                  
  0.1342       1 (B1g) A                 ->    2 (Au) A                   
  0.1342       1 (B1g) B                 ->    2 (Au) B                   

              Summary of significant orbitals:

               Number  Type             Irrep      Energy
               1       Occ  Alpha       1 (Ag)    -11.2383
               4       Occ  Alpha       2 (Ag)    -11.2365
               5       Occ  Alpha       1 (B1g)    -11.2365
               2       Occ  Alpha       1 (B3u)    -11.2377
               1       Occ  Beta        1 (Ag)    -11.2383
               4       Occ  Beta        2 (Ag)    -11.2365
               5       Occ  Beta        1 (B1g)    -11.2365
               2       Occ  Beta        1 (B3u)    -11.2377
               55      Vir  Alpha       4 (B2g)      0.3690
               29      Vir  Alpha       1 (Au)      0.1094
               44      Vir  Alpha       2 (Au)      0.2163
               28      Vir  Alpha       2 (B1u)      0.1094
               43      Vir  Alpha       4 (B1u)      0.2163
               55      Vir  Beta        4 (B2g)      0.3690
               29      Vir  Beta        1 (Au)      0.1094
               44      Vir  Beta        2 (Au)      0.2163
               28      Vir  Beta        2 (B1u)      0.1094
               43      Vir  Beta        4 (B1u)      0.2163


 EOMEE transition 2/B1u
 Total energy = -221.09579545 a.u.  Excitation energy = 286.3205 eV.
 R0^2 = 0.0000  R1^2 = 0.8343  R2_CCVV^2 = 0.0013  R2_COVV^2 = 0.0822  Res^2 = 3.54e-06
 Conv-d = yes

 Amplitude    Transitions between orbitals
 -0.3846       1 (B1g) A                 ->    1 (Au) A                   
 -0.3846       1 (B1g) B                 ->    1 (Au) B                   
 -0.3846       2 (Ag) A                  ->    2 (B1u) A                  
 -0.3846       2 (Ag) B                  ->    2 (B1u) B                  
 -0.1863       1 (B1g) A                 ->    2 (Au) A                   
 -0.1863       1 (B1g) B                 ->    2 (Au) B                   
 -0.1863       2 (Ag) A                  ->    4 (B1u) A                  
 -0.1863       2 (Ag) B                  ->    4 (B1u) B                  
  0.1738       2 (B3u) A                 ->    4 (B2g) A                  
  0.1738       2 (B3u) B                 ->    4 (B2g) B                  

              Summary of significant orbitals:

               Number  Type             Irrep      Energy
               4       Occ  Alpha       2 (Ag)    -11.2365
               5       Occ  Alpha       1 (B1g)    -11.2365
               6       Occ  Alpha       2 (B3u)    -11.2359
               4       Occ  Beta        2 (Ag)    -11.2365
               5       Occ  Beta        1 (B1g)    -11.2365
               6       Occ  Beta        2 (B3u)    -11.2359
               55      Vir  Alpha       4 (B2g)      0.3690
               29      Vir  Alpha       1 (Au)      0.1094
               44      Vir  Alpha       2 (Au)      0.2163
               28      Vir  Alpha       2 (B1u)      0.1094
               43      Vir  Alpha       4 (B1u)      0.2163
               55      Vir  Beta        4 (B2g)      0.3690
               29      Vir  Beta        1 (Au)      0.1094
               44      Vir  Beta        2 (Au)      0.2163
               28      Vir  Beta        2 (B1u)      0.1094
               43      Vir  Beta        4 (B1u)      0.2163


 EOMEE transition 3/B1u
 Total energy = -221.03829199 a.u.  Excitation energy = 287.8852 eV.
 R0^2 = 0.0000  R1^2 = 0.7944  R2_CCVV^2 = 0.0012  R2_COVV^2 = 0.1022  Res^2 = 6.84e-06
 Conv-d = yes

 Amplitude    Transitions between orbitals
  0.4214       1 (Ag) A                  ->    2 (B1u) A                  
  0.4214       1 (Ag) B                  ->    2 (B1u) B                  
  0.2894       1 (B1g) A                 ->    1 (Au) A                   
  0.2894       1 (B1g) B                 ->    1 (Au) B                   
 -0.2894       2 (Ag) A                  ->    2 (B1u) A                  
 -0.2894       2 (Ag) B                  ->    2 (B1u) B                  
  0.1609       1 (Ag) A                  ->    4 (B1u) A                  
  0.1609       1 (Ag) B                  ->    4 (B1u) B                  
  0.1090       1 (B1g) A                 ->    2 (Au) A                   
  0.1090       1 (B1g) B                 ->    2 (Au) B                   
 -0.1090       2 (Ag) A                  ->    4 (B1u) A                  
 -0.1090       2 (Ag) B                  ->    4 (B1u) B                  

              Summary of significant orbitals:

               Number  Type             Irrep      Energy
               1       Occ  Alpha       1 (Ag)    -11.2383
               4       Occ  Alpha       2 (Ag)    -11.2365
               5       Occ  Alpha       1 (B1g)    -11.2365
               1       Occ  Beta        1 (Ag)    -11.2383
               4       Occ  Beta        2 (Ag)    -11.2365
               5       Occ  Beta        1 (B1g)    -11.2365
               29      Vir  Alpha       1 (Au)      0.1094
               44      Vir  Alpha       2 (Au)      0.2163
               28      Vir  Alpha       2 (B1u)      0.1094
               43      Vir  Alpha       4 (B1u)      0.2163
               29      Vir  Beta        1 (Au)      0.1094
               44      Vir  Beta        2 (Au)      0.2163
               28      Vir  Beta        2 (B1u)      0.1094
               43      Vir  Beta        4 (B1u)      0.2163


 EOMEE transition 4/B1u
 Total energy = -220.96039619 a.u.  Excitation energy = 290.0049 eV.
 R0^2 = 0.0000  R1^2 = 0.8045  R2_CCVV^2 = 0.0012  R2_COVV^2 = 0.0972  Res^2 = 8.50e-06
 Conv-d = yes

 Amplitude    Transitions between orbitals
  0.5563       2 (Ag) A                  ->    3 (B1u) A                  
  0.5563       2 (Ag) B                  ->    3 (B1u) B                  
 -0.1984       2 (B3u) A                 ->    2 (B2g) A                  
 -0.1984       2 (B3u) B                 ->    2 (B2g) B                  
 -0.1354       1 (B3u) A                 ->    2 (B2g) A                  
 -0.1354       1 (B3u) B                 ->    2 (B2g) B                  
  0.1354       1 (B2u) A                 ->    2 (B3g) A                  
  0.1354       1 (B2u) B                 ->    2 (B3g) B                  

              Summary of significant orbitals:

               Number  Type             Irrep      Energy
               4       Occ  Alpha       2 (Ag)    -11.2365
               3       Occ  Alpha       1 (B2u)    -11.2377
               2       Occ  Alpha       1 (B3u)    -11.2377
               6       Occ  Alpha       2 (B3u)    -11.2359
               4       Occ  Beta        2 (Ag)    -11.2365
               3       Occ  Beta        1 (B2u)    -11.2377
               2       Occ  Beta        1 (B3u)    -11.2377
               6       Occ  Beta        2 (B3u)    -11.2359
               31      Vir  Alpha       2 (B2g)      0.1526
               32      Vir  Alpha       2 (B3g)      0.1526
               30      Vir  Alpha       3 (B1u)      0.1293
               31      Vir  Beta        2 (B2g)      0.1526
               32      Vir  Beta        2 (B3g)      0.1526
               30      Vir  Beta        3 (B1u)      0.1293


 EOMEE transition 5/B1u
 Total energy = -220.95845229 a.u.  Excitation energy = 290.0578 eV.
 R0^2 = 0.0000  R1^2 = 0.8045  R2_CCVV^2 = 0.0012  R2_COVV^2 = 0.0972  Res^2 = 8.10e-06
 Conv-d = yes

 Amplitude    Transitions between orbitals
 -0.5536       1 (Ag) A                  ->    3 (B1u) A                  
 -0.5536       1 (Ag) B                  ->    3 (B1u) B                  
  0.1984       1 (B2u) A                 ->    2 (B3g) A                  
  0.1984       1 (B2u) B                 ->    2 (B3g) B                  
  0.1984       1 (B3u) A                 ->    2 (B2g) A                  
  0.1984       1 (B3u) B                 ->    2 (B2g) B                  

              Summary of significant orbitals:

               Number  Type             Irrep      Energy
               1       Occ  Alpha       1 (Ag)    -11.2383
               3       Occ  Alpha       1 (B2u)    -11.2377
               2       Occ  Alpha       1 (B3u)    -11.2377
               1       Occ  Beta        1 (Ag)    -11.2383
               3       Occ  Beta        1 (B2u)    -11.2377
               2       Occ  Beta        1 (B3u)    -11.2377
               31      Vir  Alpha       2 (B2g)      0.1526
               32      Vir  Alpha       2 (B3g)      0.1526
               30      Vir  Alpha       3 (B1u)      0.1293
               31      Vir  Beta        2 (B2g)      0.1526
               32      Vir  Beta        2 (B3g)      0.1526
               30      Vir  Beta        3 (B1u)      0.1293


      CVS-EOM-CCSD/MP2 left amplitudes will be solved using Davidson.
        Amplitudes will be solved using MOM  algorithm.
     Hard-coded thresholds: 
     LinDepThresh=1.00e-15  NormThresh=1.00e-06  ReorthogonThresh=1.00e-02

      Roots     MaxVec    MaxIter   Precond   Conv      Shift    
      5         60        60        1         1.00e-05  0.00e+00  
 ------------------------------------------------------------------------------
      Iter ConvRoots NVecs ResNorm Current eigenvalues (eV)
 ------------------------------------------------------------------------------
      0    0      5     2.52e-02   286.3105   286.3205   287.8852   290.0049   290.0578   
      1    0      10    8.68e-03   286.3105   286.3205   287.8849   290.0048   290.0577   
      2    0      15    4.66e-04   286.3106   286.3206   287.8850   290.0047   290.0576   
      3    0      20    9.10e-05   286.3106   286.3206   287.8849   290.0047   290.0576   
      4    2      25    1.50e-05   286.3106   286.3205   287.8849   290.0047*  290.0575*  
      5    4      28    7.26e-06   286.3105*  286.3205*  287.8848   290.0047*  290.0575*  
      6    5      29    5.70e-06   286.3105*  286.3205*  287.8848*  290.0046*  290.0575*  

     Davidson procedure converged

        Solving for CVS-EOMEE-CCSD B2u singlet states.

        CVS-EOMEE-CCSD/MP2 right amplitudes will be solved using Davidson.
        Amplitudes will be solved using standard  algorithm.
     Hard-coded thresholds: 
     LinDepThresh=1.00e-15  NormThresh=1.00e-06  ReorthogonThresh=1.00e-02

      Roots     MaxVec    MaxIter   Precond   Conv      Shift    
      5         60        60        1         1.00e-05  0.00e+00  
 ------------------------------------------------------------------------------
      Iter ConvRoots NVecs ResNorm Current eigenvalues (eV)
 ------------------------------------------------------------------------------
      0    0      5     1.91e+00   302.7967   303.7860   303.8727   304.1209   304.5877   
      1    0      10    1.20e+00   299.8478   300.8060   300.8823   301.1158   301.5903   
      2    0      15    7.12e-02   289.2834   290.0708   290.1193   290.2667   290.7898   
      3    0      20    4.94e-03   288.6402   289.5015   289.5378   289.6747   290.2097   
      4    0      25    5.26e-03   288.5476   289.4546   289.4900   289.6267   290.1658   
      5    0      30    3.56e-03   288.3514   289.3768   289.4172   289.5582   290.1018   
      6    0      35    2.60e-03   288.2292   289.3117   289.3400   289.4872   290.0313   
      7    0      40    7.77e-04   288.2060   289.2915   289.3173   289.4564   290.0021   
      8    0      45    3.02e-04   288.2003   289.2846   289.3010   289.4418   289.9911   
      9    0      50    3.67e-04   288.1970   289.2819   289.2941   289.4305   289.9881   
      10   0      55    5.62e-04   288.1947   289.2724   289.2760   289.4017   289.9825   
      11   0      60    2.12e-04   288.1938   289.2584   289.2705   289.3867   289.9780   
      12   1      10    6.67e-05   288.1938*  289.2564   289.2696   289.3825   289.9770   
      13   1      14    2.67e-05   288.1938*  289.2547   289.2687   289.3809   289.9758   
      14   1      18    1.68e-05   288.1938*  289.2533   289.2679   289.3798   289.9746   
      15   1      22    1.30e-05   288.1938*  289.2534   289.2677   289.3794   289.9738   
      16   4      26    8.65e-06   288.1938*  289.2528*  289.2674*  289.3795*  289.9737   
      17   4      27    7.45e-06   288.1938*  289.2528*  289.2673*  289.3796*  289.9734   
      18   4      28    7.46e-06   288.1938*  289.2528*  289.2674*  289.3795*  289.9738   
      19   5      29    6.55e-06   288.1937*  289.2528*  289.2671*  289.3795*  289.9721*  

     Davidson procedure converged

 EOMEE transition 1/B2u
 Total energy = -221.02695402 a.u.  Excitation energy = 288.1937 eV.
 R0^2 = 0.0000  R1^2 = 0.8114  R2_CCVV^2 = 0.0012  R2_COVV^2 = 0.0937  Res^2 = 1.44e-06
 Conv-d = yes

 Amplitude    Transitions between orbitals
  0.4408       1 (B2u) A                 ->    7 (Ag) A                   
  0.4408       1 (B2u) B                 ->    7 (Ag) B                   
 -0.2221       1 (Ag) A                  ->    5 (B2u) A                  
 -0.2221       1 (Ag) B                  ->    5 (B2u) B                  
  0.1697       1 (B2u) A                 ->    11 (Ag) A                  
  0.1697       1 (B2u) B                 ->    11 (Ag) B                  
  0.1661       1 (B1g) A                 ->    6 (B3u) A                  
  0.1661       1 (B1g) B                 ->    6 (B3u) B                  
  0.1661       2 (Ag) A                  ->    5 (B2u) A                  
  0.1661       2 (Ag) B                  ->    5 (B2u) B                  
  0.1176       1 (Ag) A                  ->    7 (B2u) A                  
  0.1176       1 (Ag) B                  ->    7 (B2u) B                  

              Summary of significant orbitals:

               Number  Type             Irrep      Energy
               1       Occ  Alpha       1 (Ag)    -11.2383
               4       Occ  Alpha       2 (Ag)    -11.2365
               5       Occ  Alpha       1 (B1g)    -11.2365
               3       Occ  Alpha       1 (B2u)    -11.2377
               1       Occ  Beta        1 (Ag)    -11.2383
               4       Occ  Beta        2 (Ag)    -11.2365
               5       Occ  Beta        1 (B1g)    -11.2365
               3       Occ  Beta        1 (B2u)    -11.2377
               22      Vir  Alpha       7 (Ag)      0.0421
               39      Vir  Alpha      11 (Ag)      0.1925
               24      Vir  Alpha       5 (B2u)      0.0490
               38      Vir  Alpha       7 (B2u)      0.1834
               23      Vir  Alpha       6 (B3u)      0.0490
               22      Vir  Beta        7 (Ag)      0.0421
               39      Vir  Beta       11 (Ag)      0.1925
               24      Vir  Beta        5 (B2u)      0.0490
               38      Vir  Beta        7 (B2u)      0.1834
               23      Vir  Beta        6 (B3u)      0.0490


 EOMEE transition 2/B2u
 Total energy = -220.98803361 a.u.  Excitation energy = 289.2528 eV.
 R0^2 = 0.0000  R1^2 = 0.7982  R2_CCVV^2 = 0.0011  R2_COVV^2 = 0.1003  Res^2 = 7.69e-06
 Conv-d = yes

 Amplitude    Transitions between orbitals
 -0.3934       1 (B1g) A                 ->    6 (B3u) A                  
 -0.3934       1 (B1g) B                 ->    6 (B3u) B                  
  0.3934       2 (Ag) A                  ->    5 (B2u) A                  
  0.3934       2 (Ag) B                  ->    5 (B2u) B                  
  0.1534       1 (B2u) A                 ->    8 (Ag) A                   
  0.1534       1 (B2u) B                 ->    8 (Ag) B                   
 -0.1534       1 (B3u) A                 ->    4 (B1g) A                  
 -0.1534       1 (B3u) B                 ->    4 (B1g) B                  
  0.1134       1 (B1g) A                 ->    8 (B3u) A                  
  0.1134       1 (B1g) B                 ->    8 (B3u) B                  
 -0.1134       2 (Ag) A                  ->    7 (B2u) A                  
 -0.1134       2 (Ag) B                  ->    7 (B2u) B                  

              Summary of significant orbitals:

               Number  Type             Irrep      Energy
               4       Occ  Alpha       2 (Ag)    -11.2365
               5       Occ  Alpha       1 (B1g)    -11.2365
               3       Occ  Alpha       1 (B2u)    -11.2377
               2       Occ  Alpha       1 (B3u)    -11.2377
               4       Occ  Beta        2 (Ag)    -11.2365
               5       Occ  Beta        1 (B1g)    -11.2365
               3       Occ  Beta        1 (B2u)    -11.2377
               2       Occ  Beta        1 (B3u)    -11.2377
               25      Vir  Alpha       8 (Ag)      0.0663
               26      Vir  Alpha       4 (B1g)      0.0663
               24      Vir  Alpha       5 (B2u)      0.0490
               38      Vir  Alpha       7 (B2u)      0.1834
               23      Vir  Alpha       6 (B3u)      0.0490
               37      Vir  Alpha       8 (B3u)      0.1834
               25      Vir  Beta        8 (Ag)      0.0663
               26      Vir  Beta        4 (B1g)      0.0663
               24      Vir  Beta        5 (B2u)      0.0490
               38      Vir  Beta        7 (B2u)      0.1834
               23      Vir  Beta        6 (B3u)      0.0490
               37      Vir  Beta        8 (B3u)      0.1834


 EOMEE transition 3/B2u
 Total energy = -220.98750822 a.u.  Excitation energy = 289.2671 eV.
 R0^2 = 0.0000  R1^2 = 0.7983  R2_CCVV^2 = 0.0011  R2_COVV^2 = 0.1003  Res^2 = 7.40e-06
 Conv-d = yes

 Amplitude    Transitions between orbitals
 -0.3320       1 (Ag) A                  ->    5 (B2u) A                  
 -0.3320       1 (Ag) B                  ->    5 (B2u) B                  
 -0.3012       2 (Ag) A                  ->    5 (B2u) A                  
 -0.3012       2 (Ag) B                  ->    5 (B2u) B                  
 -0.3011       1 (B1g) A                 ->    6 (B3u) A                  
 -0.3011       1 (B1g) B                 ->    6 (B3u) B                  
  0.1994       2 (B3u) A                 ->    4 (B1g) A                  
  0.1994       2 (B3u) B                 ->    4 (B1g) B                  

              Summary of significant orbitals:

               Number  Type             Irrep      Energy
               1       Occ  Alpha       1 (Ag)    -11.2383
               4       Occ  Alpha       2 (Ag)    -11.2365
               5       Occ  Alpha       1 (B1g)    -11.2365
               6       Occ  Alpha       2 (B3u)    -11.2359
               1       Occ  Beta        1 (Ag)    -11.2383
               4       Occ  Beta        2 (Ag)    -11.2365
               5       Occ  Beta        1 (B1g)    -11.2365
               6       Occ  Beta        2 (B3u)    -11.2359
               26      Vir  Alpha       4 (B1g)      0.0663
               24      Vir  Alpha       5 (B2u)      0.0490
               23      Vir  Alpha       6 (B3u)      0.0490
               26      Vir  Beta        4 (B1g)      0.0663
               24      Vir  Beta        5 (B2u)      0.0490
               23      Vir  Beta        6 (B3u)      0.0490


 EOMEE transition 4/B2u
 Total energy = -220.98337713 a.u.  Excitation energy = 289.3795 eV.
 R0^2 = 0.0000  R1^2 = 0.7968  R2_CCVV^2 = 0.0011  R2_COVV^2 = 0.1010  Res^2 = 8.04e-06
 Conv-d = yes

 Amplitude    Transitions between orbitals
  0.3713       1 (B2u) A                 ->    7 (Ag) A                   
  0.3713       1 (B2u) B                 ->    7 (Ag) B                   
  0.3352       1 (Ag) A                  ->    5 (B2u) A                  
  0.3352       1 (Ag) B                  ->    5 (B2u) B                  
  0.1574       1 (B2u) A                 ->    9 (Ag) A                   
  0.1574       1 (B2u) B                 ->    9 (Ag) B                   
  0.1366       2 (B3u) A                 ->    4 (B1g) A                  
  0.1366       2 (B3u) B                 ->    4 (B1g) B                  
 -0.1329       1 (B3u) A                 ->    4 (B1g) A                  
 -0.1329       1 (B3u) B                 ->    4 (B1g) B                  
 -0.1329       1 (B2u) A                 ->    8 (Ag) A                   
 -0.1329       1 (B2u) B                 ->    8 (Ag) B                   
 -0.1271       1 (B1g) A                 ->    6 (B3u) A                  
 -0.1271       1 (B1g) B                 ->    6 (B3u) B                  
 -0.1271       2 (Ag) A                  ->    5 (B2u) A                  
 -0.1271       2 (Ag) B                  ->    5 (B2u) B                  

              Summary of significant orbitals:

               Number  Type             Irrep      Energy
               1       Occ  Alpha       1 (Ag)    -11.2383
               4       Occ  Alpha       2 (Ag)    -11.2365
               5       Occ  Alpha       1 (B1g)    -11.2365
               3       Occ  Alpha       1 (B2u)    -11.2377
               2       Occ  Alpha       1 (B3u)    -11.2377
               6       Occ  Alpha       2 (B3u)    -11.2359
               1       Occ  Beta        1 (Ag)    -11.2383
               4       Occ  Beta        2 (Ag)    -11.2365
               5       Occ  Beta        1 (B1g)    -11.2365
               3       Occ  Beta        1 (B2u)    -11.2377
               2       Occ  Beta        1 (B3u)    -11.2377
               6       Occ  Beta        2 (B3u)    -11.2359
               22      Vir  Alpha       7 (Ag)      0.0421
               25      Vir  Alpha       8 (Ag)      0.0663
               33      Vir  Alpha       9 (Ag)      0.1581
               26      Vir  Alpha       4 (B1g)      0.0663
               24      Vir  Alpha       5 (B2u)      0.0490
               23      Vir  Alpha       6 (B3u)      0.0490
               22      Vir  Beta        7 (Ag)      0.0421
               25      Vir  Beta        8 (Ag)      0.0663
               33      Vir  Beta        9 (Ag)      0.1581
               26      Vir  Beta        4 (B1g)      0.0663
               24      Vir  Beta        5 (B2u)      0.0490
               23      Vir  Beta        6 (B3u)      0.0490


 EOMEE transition 5/B2u
 Total energy = -220.96160012 a.u.  Excitation energy = 289.9721 eV.
 R0^2 = 0.0000  R1^2 = 0.7961  R2_CCVV^2 = 0.0011  R2_COVV^2 = 0.1014  Res^2 = 8.20e-06
 Conv-d = yes

 Amplitude    Transitions between orbitals
 -0.4877       2 (B3u) A                 ->    4 (B1g) A                  
 -0.4877       2 (B3u) B                 ->    4 (B1g) B                  
 -0.2097       1 (B1g) A                 ->    6 (B3u) A                  
 -0.2097       1 (B1g) B                 ->    6 (B3u) B                  
 -0.2097       2 (Ag) A                  ->    5 (B2u) A                  
 -0.2097       2 (Ag) B                  ->    5 (B2u) B                  
 -0.1495       2 (B3u) A                 ->    5 (B1g) A                  
 -0.1495       2 (B3u) B                 ->    5 (B1g) B                  
  0.1234       1 (B1g) A                 ->    7 (B3u) A                  
  0.1234       1 (B1g) B                 ->    7 (B3u) B                  

              Summary of significant orbitals:

               Number  Type             Irrep      Energy
               4       Occ  Alpha       2 (Ag)    -11.2365
               5       Occ  Alpha       1 (B1g)    -11.2365
               6       Occ  Alpha       2 (B3u)    -11.2359
               4       Occ  Beta        2 (Ag)    -11.2365
               5       Occ  Beta        1 (B1g)    -11.2365
               6       Occ  Beta        2 (B3u)    -11.2359
               26      Vir  Alpha       4 (B1g)      0.0663
               35      Vir  Alpha       5 (B1g)      0.1812
               24      Vir  Alpha       5 (B2u)      0.0490
               23      Vir  Alpha       6 (B3u)      0.0490
               27      Vir  Alpha       7 (B3u)      0.0881
               26      Vir  Beta        4 (B1g)      0.0663
               35      Vir  Beta        5 (B1g)      0.1812
               24      Vir  Beta        5 (B2u)      0.0490
               23      Vir  Beta        6 (B3u)      0.0490
               27      Vir  Beta        7 (B3u)      0.0881


      CVS-EOM-CCSD/MP2 left amplitudes will be solved using Davidson.
        Amplitudes will be solved using MOM  algorithm.
     Hard-coded thresholds: 
     LinDepThresh=1.00e-15  NormThresh=1.00e-06  ReorthogonThresh=1.00e-02

      Roots     MaxVec    MaxIter   Precond   Conv      Shift    
      5         60        60        1         1.00e-05  0.00e+00  
 ------------------------------------------------------------------------------
      Iter ConvRoots NVecs ResNorm Current eigenvalues (eV)
 ------------------------------------------------------------------------------
      0    0      5     3.06e-02   288.1937   289.2528   289.2671   289.3795   289.9721   
      1    0      10    1.00e-02   288.1937   289.2528   289.2672   289.3792   289.9730   
      2    0      15    4.70e-04   288.1937   289.2530   289.2673   289.3793   289.9729   
      3    0      20    7.59e-05   288.1937   289.2530   289.2673   289.3793   289.9728   
      4    3      25    8.96e-06   288.1937*  289.2530*  289.2673*  289.3793   289.9728   
      5    5      27    6.25e-06   288.1937*  289.2530*  289.2673*  289.3792*  289.9727*  

     Davidson procedure converged

        Solving for CVS-EOMEE-CCSD B3u singlet states.

        CVS-EOMEE-CCSD/MP2 right amplitudes will be solved using Davidson.
        Amplitudes will be solved using standard  algorithm.
     Hard-coded thresholds: 
     LinDepThresh=1.00e-15  NormThresh=1.00e-06  ReorthogonThresh=1.00e-02

      Roots     MaxVec    MaxIter   Precond   Conv      Shift    
      5         60        60        1         1.00e-05  0.00e+00  
 ------------------------------------------------------------------------------
      Iter ConvRoots NVecs ResNorm Current eigenvalues (eV)
 ------------------------------------------------------------------------------
      0    0      5     1.91e+00   302.8024   302.8440   303.8963   304.1260   304.1617   
      1    0      10    1.20e+00   299.8440   299.8902   300.9080   301.1120   301.1515   
      2    0      15    7.41e-02   289.2525   289.3074   290.1452   290.2381   290.2824   
      3    0      20    5.50e-03   288.6079   288.6603   289.5624   289.6451   289.6885   
      4    0      25    6.24e-03   288.5157   288.5674   289.5143   289.5978   289.6409   
      5    0      30    4.81e-03   288.3200   288.3723   289.4418   289.5319   289.5756   
      6    0      35    2.97e-03   288.1918   288.2421   289.3640   289.4622   289.5061   
      7    0      40    9.06e-04   288.1647   288.2141   289.3404   289.4300   289.4737   
      8    0      45    4.34e-04   288.1575   288.2063   289.3233   289.4145   289.4576   
      9    0      50    6.27e-04   288.1524   288.2006   289.3153   289.4021   289.4445   
      10   0      55    8.50e-04   288.1486   288.1962   289.2904   289.3711   289.4112   
      11   0      60    3.62e-04   288.1471   288.1945   289.2739   289.3530   289.3912   
      12   1      10    8.40e-05   288.1470*  288.1943   289.2716   289.3483   289.3861   
      13   2      14    3.97e-05   288.1470*  288.1940*  289.2695   289.3460   289.3834   
      14   2      17    1.91e-05   288.1470*  288.1940*  289.2679   289.3443   289.3814   
      15   2      20    1.86e-05   288.1469*  288.1938*  289.2680   289.3435   289.3805   
      16   3      23    1.08e-05   288.1469*  288.1938*  289.2674*  289.3434   289.3803   
      17   3      25    8.89e-06   288.1469*  288.1939*  289.2673*  289.3430   289.3797   
      18   5      27    6.95e-06   288.1469*  288.1939*  289.2674*  289.3438*  289.3807*  

     Davidson procedure converged

 EOMEE transition 1/B3u
 Total energy = -221.02867566 a.u.  Excitation energy = 288.1469 eV.
 R0^2 = 0.0000  R1^2 = 0.8115  R2_CCVV^2 = 0.0012  R2_COVV^2 = 0.0936  Res^2 = 4.77e-06
 Conv-d = yes

 Amplitude    Transitions between orbitals
  0.4470       2 (B3u) A                 ->    7 (Ag) A                   
  0.4470       2 (B3u) B                 ->    7 (Ag) B                   
  0.2253       2 (Ag) A                  ->    6 (B3u) A                  
  0.2253       2 (Ag) B                  ->    6 (B3u) B                  
  0.2253       1 (B1g) A                 ->    5 (B2u) A                  
  0.2253       1 (B1g) B                 ->    5 (B2u) B                  
  0.1731       2 (B3u) A                 ->    11 (Ag) A                  
  0.1731       2 (B3u) B                 ->    11 (Ag) B                  
 -0.1186       2 (Ag) A                  ->    8 (B3u) A                  
 -0.1186       2 (Ag) B                  ->    8 (B3u) B                  
 -0.1186       1 (B1g) A                 ->    7 (B2u) A                  
 -0.1186       1 (B1g) B                 ->    7 (B2u) B                  

              Summary of significant orbitals:

               Number  Type             Irrep      Energy
               4       Occ  Alpha       2 (Ag)    -11.2365
               5       Occ  Alpha       1 (B1g)    -11.2365
               6       Occ  Alpha       2 (B3u)    -11.2359
               4       Occ  Beta        2 (Ag)    -11.2365
               5       Occ  Beta        1 (B1g)    -11.2365
               6       Occ  Beta        2 (B3u)    -11.2359
               22      Vir  Alpha       7 (Ag)      0.0421
               39      Vir  Alpha      11 (Ag)      0.1925
               24      Vir  Alpha       5 (B2u)      0.0490
               38      Vir  Alpha       7 (B2u)      0.1834
               23      Vir  Alpha       6 (B3u)      0.0490
               37      Vir  Alpha       8 (B3u)      0.1834
               22      Vir  Beta        7 (Ag)      0.0421
               39      Vir  Beta       11 (Ag)      0.1925
               24      Vir  Beta        5 (B2u)      0.0490
               38      Vir  Beta        7 (B2u)      0.1834
               23      Vir  Beta        6 (B3u)      0.0490
               37      Vir  Beta        8 (B3u)      0.1834


 EOMEE transition 2/B3u
 Total energy = -221.02694990 a.u.  Excitation energy = 288.1938 eV.
 R0^2 = 0.0000  R1^2 = 0.8114  R2_CCVV^2 = 0.0012  R2_COVV^2 = 0.0937  Res^2 = 3.33e-06
 Conv-d = yes

 Amplitude    Transitions between orbitals
 -0.4411       1 (B3u) A                 ->    7 (Ag) A                   
 -0.4411       1 (B3u) B                 ->    7 (Ag) B                   
 -0.2220       1 (Ag) A                  ->    6 (B3u) A                  
 -0.2220       1 (Ag) B                  ->    6 (B3u) B                  
 -0.1709       1 (B3u) A                 ->    11 (Ag) A                  
 -0.1709       1 (B3u) B                 ->    11 (Ag) B                  
  0.1662       1 (B1g) A                 ->    5 (B2u) A                  
  0.1662       1 (B1g) B                 ->    5 (B2u) B                  
 -0.1662       2 (Ag) A                  ->    6 (B3u) A                  
 -0.1662       2 (Ag) B                  ->    6 (B3u) B                  
  0.1173       1 (Ag) A                  ->    8 (B3u) A                  
  0.1173       1 (Ag) B                  ->    8 (B3u) B                  

              Summary of significant orbitals:

               Number  Type             Irrep      Energy
               1       Occ  Alpha       1 (Ag)    -11.2383
               4       Occ  Alpha       2 (Ag)    -11.2365
               5       Occ  Alpha       1 (B1g)    -11.2365
               2       Occ  Alpha       1 (B3u)    -11.2377
               1       Occ  Beta        1 (Ag)    -11.2383
               4       Occ  Beta        2 (Ag)    -11.2365
               5       Occ  Beta        1 (B1g)    -11.2365
               2       Occ  Beta        1 (B3u)    -11.2377
               22      Vir  Alpha       7 (Ag)      0.0421
               39      Vir  Alpha      11 (Ag)      0.1925
               24      Vir  Alpha       5 (B2u)      0.0490
               23      Vir  Alpha       6 (B3u)      0.0490
               37      Vir  Alpha       8 (B3u)      0.1834
               22      Vir  Beta        7 (Ag)      0.0421
               39      Vir  Beta       11 (Ag)      0.1925
               24      Vir  Beta        5 (B2u)      0.0490
               23      Vir  Beta        6 (B3u)      0.0490
               37      Vir  Beta        8 (B3u)      0.1834


 EOMEE transition 3/B3u
 Total energy = -220.98749924 a.u.  Excitation energy = 289.2674 eV.
 R0^2 = 0.0000  R1^2 = 0.7982  R2_CCVV^2 = 0.0011  R2_COVV^2 = 0.1003  Res^2 = 9.09e-06
 Conv-d = yes

 Amplitude    Transitions between orbitals
 -0.3327       1 (Ag) A                  ->    6 (B3u) A                  
 -0.3327       1 (Ag) B                  ->    6 (B3u) B                  
  0.3040       2 (Ag) A                  ->    6 (B3u) A                  
  0.3040       2 (Ag) B                  ->    6 (B3u) B                  
 -0.3040       1 (B1g) A                 ->    5 (B2u) A                  
 -0.3040       1 (B1g) B                 ->    5 (B2u) B                  
 -0.1881       2 (B3u) A                 ->    8 (Ag) A                   
 -0.1881       2 (B3u) B                 ->    8 (Ag) B                   

              Summary of significant orbitals:

               Number  Type             Irrep      Energy
               1       Occ  Alpha       1 (Ag)    -11.2383
               4       Occ  Alpha       2 (Ag)    -11.2365
               5       Occ  Alpha       1 (B1g)    -11.2365
               6       Occ  Alpha       2 (B3u)    -11.2359
               1       Occ  Beta        1 (Ag)    -11.2383
               4       Occ  Beta        2 (Ag)    -11.2365
               5       Occ  Beta        1 (B1g)    -11.2365
               6       Occ  Beta        2 (B3u)    -11.2359
               25      Vir  Alpha       8 (Ag)      0.0663
               24      Vir  Alpha       5 (B2u)      0.0490
               23      Vir  Alpha       6 (B3u)      0.0490
               25      Vir  Beta        8 (Ag)      0.0663
               24      Vir  Beta        5 (B2u)      0.0490
               23      Vir  Beta        6 (B3u)      0.0490


 EOMEE transition 4/B3u
 Total energy = -220.98468925 a.u.  Excitation energy = 289.3438 eV.
 R0^2 = 0.0000  R1^2 = 0.7971  R2_CCVV^2 = 0.0011  R2_COVV^2 = 0.1009  Res^2 = 7.58e-06
 Conv-d = yes

 Amplitude    Transitions between orbitals
 -0.3743       2 (B3u) A                 ->    7 (Ag) A                   
 -0.3743       2 (B3u) B                 ->    7 (Ag) B                   
  0.2758       1 (B1g) A                 ->    5 (B2u) A                  
  0.2758       1 (B1g) B                 ->    5 (B2u) B                  
  0.2758       2 (Ag) A                  ->    6 (B3u) A                  
  0.2758       2 (Ag) B                  ->    6 (B3u) B                  
 -0.1678       2 (B3u) A                 ->    9 (Ag) A                   
 -0.1678       2 (B3u) B                 ->    9 (Ag) B                   
 -0.1482       1 (B2u) A                 ->    4 (B1g) A                  
 -0.1482       1 (B2u) B                 ->    4 (B1g) B                  
 -0.1482       1 (B3u) A                 ->    8 (Ag) A                   
 -0.1482       1 (B3u) B                 ->    8 (Ag) B                   

              Summary of significant orbitals:

               Number  Type             Irrep      Energy
               4       Occ  Alpha       2 (Ag)    -11.2365
               5       Occ  Alpha       1 (B1g)    -11.2365
               3       Occ  Alpha       1 (B2u)    -11.2377
               2       Occ  Alpha       1 (B3u)    -11.2377
               6       Occ  Alpha       2 (B3u)    -11.2359
               4       Occ  Beta        2 (Ag)    -11.2365
               5       Occ  Beta        1 (B1g)    -11.2365
               3       Occ  Beta        1 (B2u)    -11.2377
               2       Occ  Beta        1 (B3u)    -11.2377
               6       Occ  Beta        2 (B3u)    -11.2359
               22      Vir  Alpha       7 (Ag)      0.0421
               25      Vir  Alpha       8 (Ag)      0.0663
               33      Vir  Alpha       9 (Ag)      0.1581
               26      Vir  Alpha       4 (B1g)      0.0663
               24      Vir  Alpha       5 (B2u)      0.0490
               23      Vir  Alpha       6 (B3u)      0.0490
               22      Vir  Beta        7 (Ag)      0.0421
               25      Vir  Beta        8 (Ag)      0.0663
               33      Vir  Beta        9 (Ag)      0.1581
               26      Vir  Beta        4 (B1g)      0.0663
               24      Vir  Beta        5 (B2u)      0.0490
               23      Vir  Beta        6 (B3u)      0.0490


 EOMEE transition 5/B3u
 Total energy = -220.98333389 a.u.  Excitation energy = 289.3807 eV.
 R0^2 = 0.0000  R1^2 = 0.7971  R2_CCVV^2 = 0.0011  R2_COVV^2 = 0.1009  Res^2 = 9.96e-06
 Conv-d = yes

 Amplitude    Transitions between orbitals
  0.3715       1 (B3u) A                 ->    7 (Ag) A                   
  0.3715       1 (B3u) B                 ->    7 (Ag) B                   
 -0.3367       1 (Ag) A                  ->    6 (B3u) A                  
 -0.3367       1 (Ag) B                  ->    6 (B3u) B                  
  0.1624       1 (B3u) A                 ->    9 (Ag) A                   
  0.1624       1 (B3u) B                 ->    9 (Ag) B                   
 -0.1324       2 (Ag) A                  ->    6 (B3u) A                  
 -0.1324       2 (Ag) B                  ->    6 (B3u) B                  
  0.1324       1 (B1g) A                 ->    5 (B2u) A                  
  0.1324       1 (B1g) B                 ->    5 (B2u) B                  
  0.1316       1 (B3u) A                 ->    8 (Ag) A                   
  0.1316       1 (B3u) B                 ->    8 (Ag) B                   
 -0.1316       1 (B2u) A                 ->    4 (B1g) A                  
 -0.1316       1 (B2u) B                 ->    4 (B1g) B                  
  0.1255       2 (B3u) A                 ->    8 (Ag) A                   
  0.1255       2 (B3u) B                 ->    8 (Ag) B                   

              Summary of significant orbitals:

               Number  Type             Irrep      Energy
               1       Occ  Alpha       1 (Ag)    -11.2383
               4       Occ  Alpha       2 (Ag)    -11.2365
               5       Occ  Alpha       1 (B1g)    -11.2365
               3       Occ  Alpha       1 (B2u)    -11.2377
               2       Occ  Alpha       1 (B3u)    -11.2377
               6       Occ  Alpha       2 (B3u)    -11.2359
               1       Occ  Beta        1 (Ag)    -11.2383
               4       Occ  Beta        2 (Ag)    -11.2365
               5       Occ  Beta        1 (B1g)    -11.2365
               3       Occ  Beta        1 (B2u)    -11.2377
               2       Occ  Beta        1 (B3u)    -11.2377
               6       Occ  Beta        2 (B3u)    -11.2359
               22      Vir  Alpha       7 (Ag)      0.0421
               25      Vir  Alpha       8 (Ag)      0.0663
               33      Vir  Alpha       9 (Ag)      0.1581
               26      Vir  Alpha       4 (B1g)      0.0663
               24      Vir  Alpha       5 (B2u)      0.0490
               23      Vir  Alpha       6 (B3u)      0.0490
               22      Vir  Beta        7 (Ag)      0.0421
               25      Vir  Beta        8 (Ag)      0.0663
               33      Vir  Beta        9 (Ag)      0.1581
               26      Vir  Beta        4 (B1g)      0.0663
               24      Vir  Beta        5 (B2u)      0.0490
               23      Vir  Beta        6 (B3u)      0.0490


      CVS-EOM-CCSD/MP2 left amplitudes will be solved using Davidson.
        Amplitudes will be solved using MOM  algorithm.
     Hard-coded thresholds: 
     LinDepThresh=1.00e-15  NormThresh=1.00e-06  ReorthogonThresh=1.00e-02

      Roots     MaxVec    MaxIter   Precond   Conv      Shift    
      5         60        60        1         1.00e-05  0.00e+00  
 ------------------------------------------------------------------------------
      Iter ConvRoots NVecs ResNorm Current eigenvalues (eV)
 ------------------------------------------------------------------------------
      0    0      5     2.98e-02   288.1469   288.1939   289.2674   289.3438   289.3807   
      1    0      10    1.06e-02   288.1467   288.1938   289.2673   289.3432   289.3799   
      2    0      15    4.95e-04   288.1467   288.1938   289.2675   289.3430   289.3797   
      3    0      20    7.96e-05   288.1467   288.1938   289.2675   289.3429   289.3795   
      4    3      25    1.07e-05   288.1467*  288.1938*  289.2675*  289.3428   289.3795   
      5    5      27    6.70e-06   288.1467*  288.1938*  289.2675*  289.3428*  289.3795*  

     Davidson procedure converged

 CVS-EOMEE-CCSD calculation:   CPU 6287.14 s  wall 8705.95 s


 Start computing the transition properties

 ------------------------------------------------------------------------------
 State A: ccsd: 0/Ag
 State B: cvs_eomee_ccsd/rhfref/singlets: 1/B1u
 Transition dipole moment (a.u.):
   A->B: 0.000000 (X 0.000000, Y 0.000000, Z 0.000000)
   B->A: 0.000000 (X 0.000000, Y 0.000000, Z 0.000000)
 Oscillator strength (a.u.): 0.000000
 Norm of one-particle transition density matrix:
   A->B: 0.889381;   B->A: 0.891963
   ||gamma^AB||*||gamma^BA||: 0.793295

 ------------------------------------------------------------------------------
 State A: ccsd: 0/Ag
 State B: cvs_eomee_ccsd/rhfref/singlets: 2/B1u
 Transition dipole moment (a.u.):
   A->B: 0.207336 (X 0.000000, Y 0.000000, Z 0.207336)
   B->A: 0.211119 (X 0.000000, Y 0.000000, Z 0.211119)
 Oscillator strength (a.u.): 0.307053
 Norm of one-particle transition density matrix:
   A->B: 0.889235;   B->A: 0.891655
   ||gamma^AB||*||gamma^BA||: 0.792891

 ------------------------------------------------------------------------------
 State A: ccsd: 0/Ag
 State B: cvs_eomee_ccsd/rhfref/singlets: 3/B1u
 Transition dipole moment (a.u.):
   A->B: 0.000000 (X 0.000000, Y 0.000000, Z 0.000000)
   B->A: 0.000000 (X 0.000000, Y 0.000000, Z 0.000000)
 Oscillator strength (a.u.): 0.000000
 Norm of one-particle transition density matrix:
   A->B: 0.867343;   B->A: 0.854273
   ||gamma^AB||*||gamma^BA||: 0.740948

 ------------------------------------------------------------------------------
 State A: ccsd: 0/Ag
 State B: cvs_eomee_ccsd/rhfref/singlets: 4/B1u
 Transition dipole moment (a.u.):
   A->B: 0.000000 (X 0.000000, Y 0.000000, Z 0.000000)
   B->A: 0.000000 (X 0.000000, Y 0.000000, Z 0.000000)
 Oscillator strength (a.u.): 0.000000
 Norm of one-particle transition density matrix:
   A->B: 0.899206;   B->A: 0.860251
   ||gamma^AB||*||gamma^BA||: 0.773542

 ------------------------------------------------------------------------------
 State A: ccsd: 0/Ag
 State B: cvs_eomee_ccsd/rhfref/singlets: 5/B1u
 Transition dipole moment (a.u.):
   A->B: 0.054220 (X 0.000000, Y 0.000000, Z -0.054220)
   B->A: 0.054938 (X 0.000000, Y 0.000000, Z -0.054938)
 Oscillator strength (a.u.): 0.021168
 Norm of one-particle transition density matrix:
   A->B: 0.899202;   B->A: 0.860216
   ||gamma^AB||*||gamma^BA||: 0.773508

 ------------------------------------------------------------------------------
 State A: ccsd: 0/Ag
 State B: cvs_eomee_ccsd/rhfref/singlets: 1/B2u
 Transition dipole moment (a.u.):
   A->B: 0.059123 (X 0.000000, Y 0.059123, Z 0.000000)
   B->A: 0.058102 (X 0.000000, Y 0.058102, Z 0.000000)
 Oscillator strength (a.u.): 0.024254
 Norm of one-particle transition density matrix:
   A->B: 0.901751;   B->A: 0.866321
   ||gamma^AB||*||gamma^BA||: 0.781206

 ------------------------------------------------------------------------------
 State A: ccsd: 0/Ag
 State B: cvs_eomee_ccsd/rhfref/singlets: 2/B2u
 Transition dipole moment (a.u.):
   A->B: 0.000000 (X 0.000000, Y 0.000000, Z 0.000000)
   B->A: 0.000000 (X 0.000000, Y 0.000000, Z 0.000000)
 Oscillator strength (a.u.): 0.000000
 Norm of one-particle transition density matrix:
   A->B: 0.895976;   B->A: 0.854562
   ||gamma^AB||*||gamma^BA||: 0.765668

 ------------------------------------------------------------------------------
 State A: ccsd: 0/Ag
 State B: cvs_eomee_ccsd/rhfref/singlets: 3/B2u
 Transition dipole moment (a.u.):
   A->B: 0.006145 (X 0.000000, Y -0.006145, Z 0.000000)
   B->A: 0.005936 (X 0.000000, Y -0.005936, Z 0.000000)
 Oscillator strength (a.u.): 0.000258
 Norm of one-particle transition density matrix:
   A->B: 0.896049;   B->A: 0.854621
   ||gamma^AB||*||gamma^BA||: 0.765782

 ------------------------------------------------------------------------------
 State A: ccsd: 0/Ag
 State B: cvs_eomee_ccsd/rhfref/singlets: 4/B2u
 Transition dipole moment (a.u.):
   A->B: 0.028330 (X 0.000000, Y -0.028330, Z 0.000000)
   B->A: 0.027757 (X 0.000000, Y -0.027757, Z 0.000000)
 Oscillator strength (a.u.): 0.005575
 Norm of one-particle transition density matrix:
   A->B: 0.895193;   B->A: 0.853290
   ||gamma^AB||*||gamma^BA||: 0.763859

 ------------------------------------------------------------------------------
 State A: ccsd: 0/Ag
 State B: cvs_eomee_ccsd/rhfref/singlets: 5/B2u
 Transition dipole moment (a.u.):
   A->B: 0.010227 (X 0.000000, Y 0.010227, Z 0.000000)
   B->A: 0.010142 (X 0.000000, Y 0.010142, Z 0.000000)
 Oscillator strength (a.u.): 0.000737
 Norm of one-particle transition density matrix:
   A->B: 0.895082;   B->A: 0.852566
   ||gamma^AB||*||gamma^BA||: 0.763117

 ------------------------------------------------------------------------------
 State A: ccsd: 0/Ag
 State B: cvs_eomee_ccsd/rhfref/singlets: 1/B3u
 Transition dipole moment (a.u.):
   A->B: 0.000000 (X 0.000000, Y 0.000000, Z 0.000000)
   B->A: 0.000000 (X 0.000000, Y 0.000000, Z 0.000000)
 Oscillator strength (a.u.): 0.000000
 Norm of one-particle transition density matrix:
   A->B: 0.901800;   B->A: 0.866379
   ||gamma^AB||*||gamma^BA||: 0.781300

 ------------------------------------------------------------------------------
 State A: ccsd: 0/Ag
 State B: cvs_eomee_ccsd/rhfref/singlets: 2/B3u
 Transition dipole moment (a.u.):
   A->B: 0.059370 (X 0.059370, Y 0.000000, Z 0.000000)
   B->A: 0.058250 (X 0.058250, Y 0.000000, Z 0.000000)
 Oscillator strength (a.u.): 0.024418
 Norm of one-particle transition density matrix:
   A->B: 0.901746;   B->A: 0.866337
   ||gamma^AB||*||gamma^BA||: 0.781216

 ------------------------------------------------------------------------------
 State A: ccsd: 0/Ag
 State B: cvs_eomee_ccsd/rhfref/singlets: 3/B3u
 Transition dipole moment (a.u.):
   A->B: 0.006011 (X -0.006011, Y 0.000000, Z 0.000000)
   B->A: 0.005877 (X -0.005877, Y 0.000000, Z 0.000000)
 Oscillator strength (a.u.): 0.000250
 Norm of one-particle transition density matrix:
   A->B: 0.895962;   B->A: 0.854560
   ||gamma^AB||*||gamma^BA||: 0.765653

 ------------------------------------------------------------------------------
 State A: ccsd: 0/Ag
 State B: cvs_eomee_ccsd/rhfref/singlets: 4/B3u
 Transition dipole moment (a.u.):
   A->B: 0.000000 (X 0.000000, Y 0.000000, Z 0.000000)
   B->A: 0.000000 (X 0.000000, Y 0.000000, Z 0.000000)
 Oscillator strength (a.u.): 0.000000
 Norm of one-particle transition density matrix:
   A->B: 0.895375;   B->A: 0.853316
   ||gamma^AB||*||gamma^BA||: 0.764038

 ------------------------------------------------------------------------------
 State A: ccsd: 0/Ag
 State B: cvs_eomee_ccsd/rhfref/singlets: 5/B3u
 Transition dipole moment (a.u.):
   A->B: 0.028275 (X 0.028275, Y 0.000000, Z 0.000000)
   B->A: 0.027714 (X 0.027714, Y 0.000000, Z 0.000000)
 Oscillator strength (a.u.): 0.005556
 Norm of one-particle transition density matrix:
   A->B: 0.895340;   B->A: 0.853248
   ||gamma^AB||*||gamma^BA||: 0.763947


 All requested transition properties have been computed

 Transition Properties:   CPU 26.28 s  wall 37.34 s

 Total ccman2 time:   CPU 6917.05 s  wall 9524.04 s

 27 B3u  20 B1g  28 Ag   11 B1u   6 Au   11 B2g   7 Au   29 Ag                 
  2.744   2.746   2.817   2.817   2.964   2.964   2.988   2.996
 21 B1g  30 Ag   28 B3u  22 B2u  23 B2u  29 B3u  31 Ag   30 B3u                
  3.022   3.022   3.045   3.045   3.058   3.088   3.192   3.192
 31 B3u  24 B2u  32 Ag   22 B1g  12 B1u  32 B3u  12 B2g   8 B3g                
  3.268   3.294   3.294   3.331   3.331   3.482   3.550   3.777
 23 B1g  13 B1u   8 Au   33 Ag   24 B1g  13 B2g  25 B2u  25 B1g                
  3.777   3.908   3.908   3.922   4.084   4.410   4.410   4.501
 34 Ag   33 B3u  26 B2u  35 Ag   34 B3u  36 Ag   26 B1g  35 B3u                
  4.576   4.576   5.279  24.752  25.139  25.139  25.262  25.262
 36 B3u  27 B2u  27 B1g  37 Ag   37 B3u  28 B2u  38 Ag   28 B1g                
 25.374
 38 B3u                                                                        

 --------------------------------------------------------------
             Orbital Energies (a.u.) and Symmetries
 --------------------------------------------------------------

 Alpha MOs, Restricted
 -- Occupied --                  
-11.238 -11.238 -11.238 -11.236 -11.236 -11.236  -1.153  -1.017
  1 Ag    1 B3u   1 B2u   2 Ag    1 B1g   2 B3u   3 Ag    3 B3u                
 -1.017  -0.826  -0.826  -0.712  -0.645  -0.621  -0.590  -0.590
  2 B2u   4 Ag    2 B1g   5 Ag    4 B3u   3 B2u   5 B3u   4 B2u                
 -0.502  -0.496  -0.496  -0.337  -0.337
  1 B1u   6 Ag    3 B1g   1 B2g   1 B3g                                        
 -- Virtual --                   
  0.042   0.049   0.049   0.066   0.066   0.088   0.109   0.109
  7 Ag    6 B3u   5 B2u   8 Ag    4 B1g   7 B3u   2 B1u   1 Au                 
  0.129   0.153   0.153   0.158   0.163   0.181   0.181   0.183
  3 B1u   2 B2g   2 B3g   9 Ag    6 B2u   5 B1g  10 Ag    8 B3u                
  0.183   0.193   0.209   0.212   0.212   0.216   0.216   0.217
  7 B2u  11 Ag    3 B2g  12 Ag    6 B1g   4 B1u   2 Au    9 B3u                
  0.228   0.228   0.250   0.250   0.289   0.289   0.303   0.333
 10 B3u   8 B2u   9 B2u  11 B3u  13 Ag    7 B1g   8 B1g  12 B3u                
  0.335   0.369   0.409   0.409   0.430   0.430   0.441   0.499
 14 Ag    4 B2g  13 B3u  10 B2u  15 Ag    9 B1g  14 B3u  16 Ag                 
  0.499   0.509   0.509   0.604   0.610   0.715   0.723   0.723
 10 B1g  15 B3u  11 B2u  12 B2u  17 Ag    5 B1u  16 B3u  13 B2u                
  0.729   0.751   0.751   0.752   0.758   0.758   0.797   0.820
 17 B3u  18 Ag   11 B1g  12 B1g   5 B2g   3 B3g  19 Ag    6 B1u                
  0.820   0.886   0.940   0.940   0.952   0.952   0.976   1.016
  3 Au    6 B2g  18 B3u  14 B2u  20 Ag   13 B1g  21 Ag   19 B3u                
  1.016   1.017   1.059   1.059   1.108   1.122   1.122   1.131
 15 B2u  20 B3u  22 Ag   14 B1g  21 B3u  22 B3u  16 B2u  15 B1g                
  1.170   1.219   1.219   1.250   1.324   1.324   1.392   1.392
  7 B1u  23 Ag   16 B1g   4 B3g   7 B2g   5 B3g   8 B1u   4 Au                 
  1.524   1.557   1.711   1.787   1.787   1.796   1.827   1.846
 23 B3u  24 Ag   17 B2u  24 B3u  18 B2u  25 Ag    8 B2g   9 B1u                
  1.846   1.908   1.908   1.934   1.934   1.992   2.056   2.056
  5 Au   17 B1g  26 Ag   19 B2u  25 B3u  10 B1u   9 B2g   6 B3g                
  2.104   2.104   2.132   2.237   2.237   2.239   2.249   2.249
 27 Ag   18 B1g  20 B2u   7 B3g  10 B2g  19 B1g  26 B3u  21 B2u                
  2.299   2.348   2.348   2.380   2.380   2.641   2.664   2.744
 27 B3u  20 B1g  28 Ag   11 B1u   6 Au   11 B2g   7 Au   29 Ag                 
  2.744   2.746   2.817   2.817   2.964   2.964   2.988   2.996
 21 B1g  30 Ag   28 B3u  22 B2u  23 B2u  29 B3u  31 Ag   30 B3u                
  3.022   3.022   3.045   3.045   3.058   3.088   3.192   3.192
 31 B3u  24 B2u  32 Ag   22 B1g  12 B1u  32 B3u  12 B2g   8 B3g                
  3.268   3.294   3.294   3.331   3.331   3.482   3.550   3.777
 23 B1g  13 B1u   8 Au   33 Ag   24 B1g  13 B2g  25 B2u  25 B1g                
  3.777   3.908   3.908   3.922   4.084   4.410   4.410   4.501
 34 Ag   33 B3u  26 B2u  35 Ag   34 B3u  36 Ag   26 B1g  35 B3u                
  4.576   4.576   5.279  24.752  25.139  25.139  25.262  25.262
 36 B3u  27 B2u  27 B1g  37 Ag   37 B3u  28 B2u  38 Ag   28 B1g                
 25.374
 38 B3u                                                                        

 Beta MOs, Restricted
 -- Occupied --                  
-11.238 -11.238 -11.238 -11.236 -11.236 -11.236  -1.153  -1.017
  1 Ag    1 B3u   1 B2u   2 Ag    1 B1g   2 B3u   3 Ag    3 B3u                
 -1.017  -0.826  -0.826  -0.712  -0.645  -0.621  -0.590  -0.590
  2 B2u   4 Ag    2 B1g   5 Ag    4 B3u   3 B2u   5 B3u   4 B2u                
 -0.502  -0.496  -0.496  -0.337  -0.337
  1 B1u   6 Ag    3 B1g   1 B2g   1 B3g                                        
 -- Virtual --                   
  0.042   0.049   0.049   0.066   0.066   0.088   0.109   0.109
  7 Ag    6 B3u   5 B2u   8 Ag    4 B1g   7 B3u   2 B1u   1 Au                 
  0.129   0.153   0.153   0.158   0.163   0.181   0.181   0.183
  3 B1u   2 B2g   2 B3g   9 Ag    6 B2u   5 B1g  10 Ag    8 B3u                
  0.183   0.193   0.209   0.212   0.212   0.216   0.216   0.217
  7 B2u  11 Ag    3 B2g  12 Ag    6 B1g   4 B1u   2 Au    9 B3u                
  0.228   0.228   0.250   0.250   0.289   0.289   0.303   0.333
 10 B3u   8 B2u   9 B2u  11 B3u  13 Ag    7 B1g   8 B1g  12 B3u                
  0.335   0.369   0.409   0.409   0.430   0.430   0.441   0.499
 14 Ag    4 B2g  13 B3u  10 B2u  15 Ag    9 B1g  14 B3u  16 Ag                 
  0.499   0.509   0.509   0.604   0.610   0.715   0.723   0.723
 10 B1g  15 B3u  11 B2u  12 B2u  17 Ag    5 B1u  16 B3u  13 B2u                
  0.729   0.751   0.751   0.752   0.758   0.758   0.797   0.820
 17 B3u  18 Ag   11 B1g  12 B1g   5 B2g   3 B3g  19 Ag    6 B1u                
  0.820   0.886   0.940   0.940   0.952   0.952   0.976   1.016
  3 Au    6 B2g  18 B3u  14 B2u  20 Ag   13 B1g  21 Ag   19 B3u                
  1.016   1.017   1.059   1.059   1.108   1.122   1.122   1.131
 15 B2u  20 B3u  22 Ag   14 B1g  21 B3u  22 B3u  16 B2u  15 B1g                
  1.170   1.219   1.219   1.250   1.324   1.324   1.392   1.392
  7 B1u  23 Ag   16 B1g   4 B3g   7 B2g   5 B3g   8 B1u   4 Au                 
  1.524   1.557   1.711   1.787   1.787   1.796   1.827   1.846
 23 B3u  24 Ag   17 B2u  24 B3u  18 B2u  25 Ag    8 B2g   9 B1u                
  1.846   1.908   1.908   1.934   1.934   1.992   2.056   2.056
  5 Au   17 B1g  26 Ag   19 B2u  25 B3u  10 B1u   9 B2g   6 B3g                
  2.104   2.104   2.132   2.237   2.237   2.239   2.249   2.249
 27 Ag   18 B1g  20 B2u   7 B3g  10 B2g  19 B1g  26 B3u  21 B2u                
  2.299   2.348   2.348   2.380   2.380   2.641   2.664   2.744
 27 B3u  20 B1g  28 Ag   11 B1u   6 Au   11 B2g   7 Au   29 Ag                 
  2.744   2.746   2.817   2.817   2.964   2.964   2.988   2.996
 21 B1g  30 Ag   28 B3u  22 B2u  23 B2u  29 B3u  31 Ag   30 B3u                
  3.022   3.022   3.045   3.045   3.058   3.088   3.192   3.192
 31 B3u  24 B2u  32 Ag   22 B1g  12 B1u  32 B3u  12 B2g   8 B3g                
  3.268   3.294   3.294   3.331   3.331   3.482   3.550   3.777
 23 B1g  13 B1u   8 Au   33 Ag   24 B1g  13 B2g  25 B2u  25 B1g                
  3.777   3.908   3.908   3.922   4.084   4.410   4.410   4.501
 34 Ag   33 B3u  26 B2u  35 Ag   34 B3u  36 Ag   26 B1g  35 B3u                
  4.576   4.576   5.279  24.752  25.139  25.139  25.262  25.262
 36 B3u  27 B2u  27 B1g  37 Ag   37 B3u  28 B2u  38 Ag   28 B1g                
 25.374
 38 B3u                                                                        
 --------------------------------------------------------------

          Ground-State Mulliken Net Atomic Charges

     Atom                 Charge (a.u.)
  ----------------------------------------
      1 H                     0.192684
      2 C                    -0.192674
      3 C                    -0.192688
      4 H                     0.192683
      5 C                    -0.192688
      6 H                     0.192683
      7 C                    -0.192674
      8 H                     0.192684
      9 C                    -0.192688
Archival summary:
1\1\UX410U\SP\ProcedureUnspecified\BasisUnspecified\66\marta\ThuSep2719:40:532018ThuSep2719:40:532018\0\\#,ProcedureUnspecified,BasisUnspecified,\\0,1\C\H,1,1.08144\C,1,1.39359,2,120\H,3,1.08144,1,120,2,-0,0\C,3,1.39359,1,120,2,180,0\H,5,1.08144,3,120,1,180,0\C,5,1.39359,3,120,1,-0,0\H,7,1.08144,5,120,3,180,0\C,7,1.39359,5,120,3,0,0\H,9,1.08144,7,120,5,180,0\C,9,1.39359,7,120,5,-0,0\H,11,1.08144,9,120,7,-180,0\\HF=-230.756373\\@

 Total job time:  9532.47s(wall), 6925.09s(cpu) 
 Thu Sep 27 19:40:53 2018

        *************************************************************
        *                                                           *
        *  Thank you very much for using Q-Chem.  Have a nice day.  *
        *                                                           *
        *************************************************************


     10 H                     0.192683
     11 C                    -0.192688
     12 H                     0.192683
  ----------------------------------------
  Sum of atomic charges =    -0.000000

 -----------------------------------------------------------------
                    Cartesian Multipole Moments
 -----------------------------------------------------------------
    Charge (ESU x 10^10)
                -0.0000
    Dipole Moment (Debye)
         X      -0.0000      Y       0.0000      Z       0.0000
       Tot       0.0000
    Quadrupole Moments (Debye-Ang)
        XX     -31.9164     XY      -0.0000     YY     -31.9164
        XZ       0.0000     YZ      -0.0000     ZZ     -41.3043
    Octopole Moments (Debye-Ang^2)
       XXX       0.0000    XXY      -0.0000    XYY       0.0000
       YYY       0.0000    XXZ       0.0000    XYZ       0.0000
       YYZ      -0.0000    XZZ      -0.0000    YZZ       0.0000
       ZZZ       0.0000
    Hexadecapole Moments (Debye-Ang^3)
      XXXX    -270.2761   XXXY      -0.0000   XXYY     -90.0920
      XYYY      -0.0000   YYYY    -270.2761   XXXZ       0.0000
      XXYZ      -0.0000   XYYZ       0.0000   YYYZ      -0.0000
      XXZZ     -66.0428   XYZZ      -0.0000   YYZZ     -66.0428
      XZZZ       0.0000   YZZZ      -0.0000   ZZZZ     -52.1653
 -----------------------------------------------------------------
