annas-macbook-pro-3.local 100.77.254
Q-Chem Developer Version! Running on 100.77.254.*
                  Welcome to Q-Chem
     A Quantum Leap Into The Future Of Chemistry


 Q-Chem 5.1, Q-Chem, Inc., Pleasanton, CA (2018)

 Yihan Shao,  Zhengting Gan,  E. Epifanovsky,  A. T. B. Gilbert,  M. Wormit,  
 J. Kussmann,  A. W. Lange,  A. Behn,  Jia Deng,  Xintian Feng,  D. Ghosh,  
 M. Goldey,  P. R. Horn,  L. D. Jacobson,  I. Kaliman,  T. Kus,  A. Landau,  
 Jie Liu,  E. I. Proynov,  R. M. Richard,  R. P. Steele,  E. J. Sundstrom,  
 H. L. Woodcock III,  P. M. Zimmerman,  D. Zuev,  B. Albrecht,  E. Alguire,  
 S. A. Baeppler,  D. Barton,  Z. Benda,  Y. A. Bernard,  E. J. Berquist,  
 K. B. Bravaya,  H. Burton,  D. Casanova,  Chun-Min Chang,  Yunqing Chen,  
 A. Chien,  K. D. Closser,  M. P. Coons,  S. Coriani,  S. Dasgupta,  
 A. L. Dempwolff,  M. Diedenhofen,  Hainam Do,  R. G. Edgar,  Po-Tung Fang,  
 S. Faraji,  S. Fatehi,  Qingguo Feng,  K. D. Fenk,  J. Fosso-Tande,  
 Qinghui Ge,  A. Ghysels,  G. Gidofalvi,  J. Gomes,  J. Gonthier,  A. Gunina,  
 M. W. D. Hanson-Heine,  P. H. P. Harbach,  A. W. Hauser,  J. E. Herr,  
 E. G. Hohenstein,  Z. C. Holden,  Kerwin Hui,  T.-C. Jagau,  Hyunjun Ji,  
 B. Kaduk,  K. Khistyaev,  Jaehoon Kim,  P. Klunzinger,  K. Koh,  
 D. Kosenkov,  L. Koulias,  T. Kowalczyk,  C. M. Krauter,  A. Kunitsa,  
 Ka Un Lao,  A. Laurent,  K. V. Lawler,  Joonho Lee,  D. Lefrancois,  
 S. Lehtola,  D. S. Levine,  Yi-Pei Li,  You-Sheng Lin,  Fenglai Liu,  
 E. Livshits,  A. Luenser,  P. Manohar,  E. Mansoor,  S. F. Manzer,  
 Shan-Ping Mao,  Yuezhi Mao,  N. Mardirossian,  A. V. Marenich,  
 T. Markovich,  L. A. Martinez-Martinez,  S. A. Maurer,  N. J. Mayhall,  
 S. C. McKenzie,  J.-M. Mewes,  A. F. Morrison,  J. W. Mullinax,  K. Nanda,  
 T. S. Nguyen-Beck,  R. Olivares-Amaya,  J. A. Parkhill,  T. M. Perrine,  
 F. Plasser,  P. Pokhilko,  S. Prager,  A. Prociuk,  E. Ramos,  D. R. Rehn,  
 F. Rob,  M. Schneider,  N. Sergueev,  S. M. Sharada,  S. Sharma,  
 D. W. Small,  T. Stauch,  T. Stein,  Yu-Chuan Su,  A. J. W. Thom,  
 A. Tkatchenko,  T. Tsuchimochi,  N. M. Tubman,  L. Vogt,  M. L. Vidal,  
 O. Vydrov,  M. A. Watson,  J. Wenzel,  M. de Wergifosse,  T. A. Wesolowski,  
 A. White,  J. Witte,  A. Yamada,  Jun Yang,  K. Yao,  S. Yeganeh,  
 S. R. Yost,  Zhi-Qiang You,  A. Zech,  Igor Ying Zhang,  Xing Zhang,  
 Yan Zhao,  Ying Zhu,  B. R. Brooks,  G. K. L. Chan,  C. J. Cramer,  
 M. S. Gordon,  W. J. Hehre,  A. Klamt,  M. W. Schmidt,  C. D. Sherrill,  
 D. G. Truhlar,  A. Aspuru-Guzik,  R. Baer,  A. T. Bell,  N. A. Besley,  
 Jeng-Da Chai,  R. A. DiStasio Jr.,  A. Dreuw,  B. D. Dunietz,  
 T. R. Furlani,  Chao-Ping Hsu,  Yousung Jung,  Jing Kong,  D. S. Lambrecht,  
 WanZhen Liang,  C. Ochsenfeld,  V. A. Rassolov,  L. V. Slipchenko,  
 J. E. Subotnik,  T. Van Voorhis,  J. M. Herbert,  A. I. Krylov,  
 P. M. W. Gill,  M. Head-Gordon

 Contributors to earlier versions of Q-Chem not listed above: 
 R. D. Adamson,  B. Austin,  J. Baker,  G. J. O. Beran,  K. Brandhorst,  
 S. T. Brown,  E. F. C. Byrd,  A. K. Chakraborty,  C.-L. Cheng,  
 Siu Hung Chien,  D. M. Chipman,  D. L. Crittenden,  H. Dachsel,  
 R. J. Doerksen,  A. D. Dutoi,  L. Fusti-Molnar,  W. A. Goddard III,  
 A. Golubeva-Zadorozhnaya,  S. R. Gwaltney,  G. Hawkins,  A. Heyden,  
 S. Hirata,  G. Kedziora,  F. J. Keil,  C. Kelley,  Jihan Kim,  R. A. King,  
 R. Z. Khaliullin,  P. P. Korambath,  W. Kurlancheek,  A. M. Lee,  M. S. Lee,  
 S. V. Levchenko,  Ching Yeh Lin,  D. Liotard,  R. C. Lochan,  I. Lotan,  
 P. E. Maslen,  N. Nair,  D. P. O'Neill,  D. Neuhauser,  E. Neuscamman,  
 C. M. Oana,  R. Olson,  B. Peters,  R. Peverati,  P. A. Pieniazek,  
 Y. M. Rhee,  J. Ritchie,  M. A. Rohrdanz,  E. Rosta,  N. J. Russ,  
 H. F. Schaefer III,  N. E. Schultz,  N. Shenvi,  A. C. Simmonett,  A. Sodt,  
 D. Stuck,  K. S. Thanthiriwatte,  V. Vanovschi,  Tao Wang,  A. Warshel,  
 C. F. Williams,  Q. Wu,  X. Xu,  W. Zhang

 Please cite Q-Chem as follows:
 Y. Shao et al., Mol. Phys. 113, 184-215 (2015)
 DOI: 10.1080/00268976.2014.952696

 Q-Chem 5.1.0 for Mac (Intel) OS X

 Parts of Q-Chem use Armadillo 8.300.2 (Tropical Shenanigans).
 http://arma.sourceforge.net/

 Q-Chem begins on Sun Sep  9 07:58:50 2018  

Annas-MacBook-Pro-3.local
Host: 0

     Scratch files written to /scratch/qchem78562//
Processing $rem in /Users/annakrylov/.qchemrc.
CC_MEMORY  4000
Core orbitals will be frozen

Checking the input file for inconsistencies... 	...done.

--------------------------------------------------------------
User input:
--------------------------------------------------------------
$comment
RI-MP2/cc-pVTZ optimized geometry. 
Open-shell calculation
$end

$molecule
+1 2
    H         2.4750347531    0.0000000000    0.0000000000
    C         1.3935929418    0.0000000000    0.0000000000
    C         0.6967964709    1.2068868901    0.0000000000
    H         1.2375173766    2.1434429715    0.0000000000
    C        -0.6967964709    1.2068868901    0.0000000000
    H        -1.2375173766    2.1434429715    0.0000000000
    C        -1.3935929418    0.0000000000    0.0000000000
    H        -2.4750347531    0.0000000000    0.0000000000
    C        -0.6967964709   -1.2068868901    0.0000000000
    H        -1.2375173766   -2.1434429715    0.0000000000
    C         0.6967964709   -1.2068868901    0.0000000000
    H         1.2375173766   -2.1434429715    0.0000000000
$end

$rem
   JOB_TYPE  =  SP
   BASIS  =  aug-cc-pVDZ
   METHOD  =  EOM-CCSD
   CVS_EE_STATES = [0,0,0,0,0,6,6,6]  Bright transitions only
!   CC_MEMORY = 80000
   cc_trans_prop = 1
$end
--------------------------------------------------------------
 ----------------------------------------------------------------
             Standard Nuclear Orientation (Angstroms)
    I     Atom           X                Y                Z
 ----------------------------------------------------------------
    1      H       2.4750347531     0.0000000000    -0.0000000000
    2      C       1.3935929418     0.0000000000    -0.0000000000
    3      C       0.6967964709     1.2068868901     0.0000000000
    4      H       1.2375173766     2.1434429715     0.0000000000
    5      C      -0.6967964709     1.2068868901     0.0000000000
    6      H      -1.2375173766     2.1434429715     0.0000000000
    7      C      -1.3935929418     0.0000000000     0.0000000000
    8      H      -2.4750347531     0.0000000000     0.0000000000
    9      C      -0.6967964709    -1.2068868901    -0.0000000000
   10      H      -1.2375173766    -2.1434429715    -0.0000000000
   11      C       0.6967964709    -1.2068868901    -0.0000000000
   12      H       1.2375173766    -2.1434429715    -0.0000000000
 ----------------------------------------------------------------
 Molecular Point Group                 D2h   NOp =  8
 Largest Abelian Subgroup              D2h   NOp =  8
 Nuclear Repulsion Energy =   203.7187449024 hartrees
 There are       21 alpha and       20 beta electrons
 Requested basis set is aug-cc-pVDZ
 There are 84 shells and 192 basis functions
MEM_TOTAL is adjusted to CC_MEMORY + MEM_STATIC!
 Total memory of 4192MB is distributed as follows: 
   QALLOC including MEM_STATIC uses 192MB
   MEM_STATIC is set to 192MB
   CCMAN JOB total memory use is  4000MB
 Warning: actual memory use might exceed 4192MB

 Total QAlloc Memory Limit    192 MB
 Mega-Array Size       188 MB
 MEM_STATIC part       192 MB

                       Distance Matrix (Angstroms)
             H (  1)   C (  2)   C (  3)   H (  4)   C (  5)   H (  6)
   C (  2)  1.081442
   C (  3)  2.149118  1.393593
   H (  4)  2.475035  2.149118  1.081442
   C (  5)  3.393684  2.413774  1.393593  2.149118
   H (  6)  4.286886  3.393684  2.149118  2.475035  1.081442
   C (  7)  3.868628  2.787186  2.413774  3.393684  1.393593  2.149118
   H (  8)  4.950070  3.868628  3.393684  4.286886  2.149118  2.475035
   C (  9)  3.393684  2.413774  2.787186  3.868628  2.413774  3.393684
   H ( 10)  4.286886  3.393684  3.868628  4.950070  3.393684  4.286886
   C ( 11)  2.149118  1.393593  2.413774  3.393684  2.787186  3.868628
   H ( 12)  2.475035  2.149118  3.393684  4.286886  3.868628  4.950070
             C (  7)   H (  8)   C (  9)   H ( 10)   C ( 11)
   H (  8)  1.081442
   C (  9)  1.393593  2.149118
   H ( 10)  2.149118  2.475035  1.081442
   C ( 11)  2.413774  3.393684  1.393593  2.149118
   H ( 12)  3.393684  4.286886  2.149118  2.475035  1.081442

 A cutoff of  1.0D-14 yielded   3570 shell pairs
 There are     18738 function pairs (     21180 Cartesian)
 Smallest overlap matrix eigenvalue = 2.32E-06

 Scale SEOQF with 1.000000e-01/1.000000e-01/1.000000e-01

 Standard Electronic Orientation quadrupole field applied
 Nucleus-field energy     =     0.0000000057 hartrees
 Guess from superposition of atomic densities
 Warning:  Energy on first SCF cycle will be non-variational
 SAD guess density has 42.000000 electrons

 -----------------------------------------------------------------------
  General SCF calculation program by
  Eric Jon Sundstrom, Paul Horn, Yuezhi Mao, Dmitri Zuev, Alec White,
  David Stuck, Shaama M.S., Shane Yost, Joonho Lee, David Small,
  Daniel Levine, Susi Lehtola, Hugh Burton, Evgeny Epifanovsky
 -----------------------------------------------------------------------
 Hartree-Fock
 A unrestricted SCF calculation will be
 performed using DIIS
 SCF converges when DIIS error is below 1.0e-08
 ---------------------------------------
  Cycle       Energy         DIIS error
 ---------------------------------------
    1    -233.2461096475      2.34e-02  
    2    -230.3363833665      1.75e-03  
    3    -230.4244003062      5.61e-04  
    4    -230.4331355542      2.21e-04  
    5    -230.4349163329      7.03e-05  
    6    -230.4353217958      3.63e-05  
    7    -230.4354627925      1.17e-05  
    8    -230.4354718185      4.32e-06  
    9    -230.4354727953      1.78e-06  
   10    -230.4354729664      4.45e-07  
   11    -230.4354730496      1.37e-07  
   12    -230.4354730016      2.94e-08  
   13    -230.4354730544      1.24e-08  
   14    -230.4354730328      4.51e-09  Convergence criterion met
 ---------------------------------------
 SCF time:   CPU 43.99s  wall 45.00s 
 SCF   energy in the final basis set =     -230.4354730328
<S^2> =          0.819504439


 ------------------------------------------------------------------------------

   CCMAN2: suite of methods based on coupled cluster
           and equation of motion theories.

   Components:
   * libvmm-1.3-trunk
     by Evgeny Epifanovsky, Ilya Kaliman.
   * libtensor-2.5-trunk
     by Evgeny Epifanovsky, Michael Wormit, Dmitry Zuev, Sam Manzer, 
        Ilya Kaliman.
   * libcc-2.5-trunk
     by Evgeny Epifanovsky, Arik Landau, Tomasz Kus, Kirill Khistyaev, 
        Dmitry Zuev, Prashant Manohar, Xintian Feng, Anna Krylov, 
        Matthew Goldey, Alec White, Thomas Jagau, Kaushik Nanda, 
        Anastasia Gunina, Alexander Kunitsa, Joonho Lee.

   CCMAN original authors:
   Anna I. Krylov, C. David Sherrill, Steven R. Gwaltney,
   Edward F. C. Byrd (2000)
   Sergey V. Levchenko, Lyudmila V. Slipchenko, Tao Wang,
   Ana-Maria C. Cristian (2003)
   Piotr A. Pieniazek, C. Melania Oana, Evgeny Epifanovsky (2007)
   Prashant Manohar (2009)

 ------------------------------------------------------------------------------


 Calculation will run on 2 cores with 4000MB of RAM.


 Alpha MOs, Unrestricted
 -- Occupied --                  
-11.505 -11.505 -11.468 -11.468 -11.467 -11.467  -1.402  -1.279
  1 B3u   1 Ag    1 B2u   2 Ag    1 B1g   2 B3u   3 Ag    3 B3u                
 -1.241  -1.061  -1.060  -0.937  -0.866  -0.858  -0.824  -0.805
  2 B2u   4 Ag    2 B1g   5 Ag    4 B3u   3 B2u   5 B3u   4 B2u                
 -0.755  -0.720  -0.720  -0.620  -0.547
  1 B1u   6 Ag    3 B1g   1 B2g   1 B3g                                        
 -- Virtual --                   
 -0.124  -0.091  -0.086  -0.069  -0.066  -0.046  -0.045  -0.031
  2 B1u   1 Au    7 Ag    6 B3u   5 B2u   8 Ag    4 B1g   3 B1u                
 -0.016  -0.016  -0.003   0.004   0.015   0.024   0.028   0.029
  9 Ag    7 B3u   2 B2g   2 B3g   6 B2u   8 B3u  10 Ag    7 B2u                
  0.033   0.035   0.038   0.043   0.049   0.054   0.061   0.070
  5 B1g  11 Ag    9 B3u   8 B2u   4 B1u   2 Au    3 B2g  10 B3u                
  0.070   0.073   0.140   0.149   0.156   0.156   0.157   0.164
 12 Ag    6 B1g   4 B2g  11 B3u   9 B2u  13 Ag    5 B1u   7 B1g                
  0.168   0.170   0.188   0.190   0.202   0.208   0.227   0.231
  8 B1g  14 Ag   15 Ag    9 B1g  12 B3u  10 B2u  11 B2u  13 B3u                
  0.257   0.258   0.267   0.268   0.269   0.281   0.287   0.318
  5 B2g  14 B3u  15 B3u   3 B3g  12 B2u  16 Ag   10 B1g  17 Ag                 
  0.339   0.348   0.362   0.382   0.385   0.391   0.397   0.405
  6 B1u   3 Au    4 B3g  16 B3u  13 B2u  18 Ag   11 B1g   6 B2g                
  0.408   0.421   0.435   0.442   0.489   0.490   0.494   0.499
  7 B1u  19 Ag   20 Ag   12 B1g  17 B3u   4 Au    8 B1u  14 B2u                
  0.501   0.515   0.517   0.520   0.527   0.557   0.576   0.583
 18 B3u  21 Ag   13 B1g  19 B3u  15 B2u   7 B2g   5 B3g  16 B2u                
  0.606   0.609   0.613   0.621   0.658   0.664   0.666   0.709
 22 Ag   20 B3u  14 B1g   9 B1u  15 B1g  21 B3u  17 B2u  23 Ag                 
  0.710   0.714   0.726   0.729   0.738   0.757   0.774   0.774
  8 B2g  16 B1g   6 B3g  10 B1u   5 Au    9 B2g   7 B3g  17 B1g                
  0.775   0.777   0.798   0.803   0.878   0.900   0.903   0.911
 24 Ag   10 B2g  25 Ag   22 B3u  23 B3u   6 Au   18 B2u  24 B3u                
  0.954   0.966   1.007   1.140   1.147   1.187   1.272   1.286
 11 B1u   7 Au   18 B1g  25 B3u  19 B2u   8 B3g  11 B2g  20 B2u                
  1.307   1.322   1.331   1.333   1.339   1.391   1.399   1.410
 26 B3u  21 B2u  12 B1u  19 B1g  26 Ag   27 B3u  27 Ag   28 B3u                
  1.424   1.426   1.434   1.442   1.466   1.483   1.487   1.505
 28 Ag   22 B2u  20 B1g  29 Ag    8 Au   12 B2g  13 B1u   9 B3g                
  1.571   1.576   1.582   1.611   1.673   1.690   1.695   1.722
 23 B2u  30 Ag   21 B1g  31 Ag   14 B1u   9 Au   32 Ag   29 B3u                
  1.734   1.741   1.757   1.763   1.777   1.790   1.879   1.891
 22 B1g  24 B2u  23 B1g  33 Ag   13 B2g  30 B3u  15 B1u  31 B3u                
  1.902   1.906   1.918   1.964   1.975   1.995   2.010   2.052
 25 B2u  14 B2g  10 B3g  11 B3g  15 B2g  34 Ag   24 B1g  26 B2u                
  2.061   2.085   2.147   2.160   2.162   2.177   2.238   2.238
 32 B3u  27 B2u  16 B1u  25 B1g  10 Au   33 B3u  35 Ag   26 B1g                
  2.386   2.458   2.572   2.577   2.586   2.587   2.595   2.756
 11 Au   16 B2g  34 B3u  36 Ag   27 B1g  28 B2u  37 Ag   35 B3u                
  2.766   2.774   2.920   2.921   2.935   2.936   3.171   3.337
 29 B2u  36 B3u  38 Ag   28 B1g  30 B2u  37 B3u  29 B1g  39 Ag                 
  3.348   3.665   4.601
 30 B1g  38 B3u  39 B3u                                                        

 Beta MOs, Unrestricted
 -- Occupied --                  
-11.494 -11.494 -11.469 -11.469 -11.468 -11.468  -1.377  -1.243
  1 B3u   1 Ag    1 B2u   2 Ag    1 B1g   2 B3u   3 Ag    2 B2u                
 -1.229  -1.049  -1.044  -0.933  -0.859  -0.852  -0.816  -0.806
  3 B3u   2 B1g   4 Ag    5 Ag    4 B3u   3 B2u   5 B3u   4 B2u                
 -0.719  -0.715  -0.667  -0.559
  6 Ag    3 B1g   1 B1u   1 B3g                                                
 -- Virtual --                   
 -0.254  -0.086  -0.069  -0.066  -0.062  -0.048  -0.045  -0.045
  1 B2g   7 Ag    6 B3u   5 B2u   1 Au    2 B1u   8 Ag    4 B1g                
 -0.024  -0.016  -0.014   0.004   0.006   0.015   0.027   0.028
  3 B1u   7 B3u   9 Ag    2 B3g   2 B2g   6 B2u   8 B3u   7 B2u                
  0.029   0.033   0.036   0.039   0.043   0.059   0.064   0.067
 10 Ag    5 B1g  11 Ag    9 B3u   8 B2u   2 Au    4 B1u   3 B2g                
  0.071   0.071   0.073   0.155   0.157   0.160   0.162   0.164
 10 B3u  12 Ag    6 B1g   9 B2u  11 B3u  13 Ag    5 B1u   7 B1g                
  0.169   0.170   0.170   0.191   0.196   0.204   0.208   0.227
  8 B1g   4 B2g  14 Ag    9 B1g  15 Ag   12 B3u  10 B2u  11 B2u                
  0.234   0.262   0.266   0.267   0.268   0.269   0.283   0.287
 13 B3u  14 B3u   5 B2g   3 B3g  15 B3u  12 B2u  16 Ag   10 B1g                
  0.324   0.346   0.350   0.373   0.387   0.392   0.400   0.405
 17 Ag    6 B1u   3 Au    4 B3g  13 B2u  16 B3u  11 B1g  18 Ag                 
  0.414   0.415   0.422   0.437   0.442   0.496   0.498   0.499
  6 B2g   7 B1u  19 Ag   20 Ag   12 B1g   4 Au   14 B2u  17 B3u                
  0.506   0.511   0.519   0.520   0.523   0.527   0.575   0.578
  8 B1u  18 B3u  21 Ag   13 B1g  19 B3u  15 B2u   5 B3g   7 B2g                
  0.585   0.609   0.611   0.613   0.640   0.660   0.667   0.669
 16 B2u  22 Ag   20 B3u  14 B1g   9 B1u  15 B1g  21 B3u  17 B2u                
  0.711   0.716   0.727   0.729   0.739   0.745   0.775   0.776
 23 Ag   16 B1g   6 B3g   8 B2g  10 B1u   5 Au    7 B3g  17 B1g                
  0.780   0.780   0.782   0.800   0.810   0.881   0.901   0.905
  9 B2g  24 Ag   10 B2g  25 Ag   22 B3u  23 B3u   6 Au   18 B2u                
  0.912   0.971   0.973   1.008   1.143   1.148   1.206   1.279
 24 B3u   7 Au   11 B1u  18 B1g  25 B3u  19 B2u   8 B3g  11 B2g                
  1.292   1.318   1.321   1.337   1.340   1.340   1.393   1.404
 20 B2u  26 B3u  21 B2u  19 B1g  12 B1u  26 Ag   27 B3u  27 Ag                 
  1.420   1.426   1.436   1.439   1.442   1.491   1.492   1.502
 28 B3u  22 B2u  28 Ag   20 B1g  29 Ag    8 Au   13 B1u  12 B2g                
  1.505   1.574   1.580   1.586   1.622   1.685   1.692   1.697
  9 B3g  23 B2u  30 Ag   21 B1g  31 Ag   14 B1u   9 Au   32 Ag                 
  1.736   1.739   1.741   1.759   1.765   1.783   1.791   1.884
 22 B1g  29 B3u  24 B2u  23 B1g  33 Ag   13 B2g  30 B3u  15 B1u                
  1.894   1.902   1.913   1.922   1.979   1.983   2.005   2.012
 31 B3u  25 B2u  14 B2g  10 B3g  11 B3g  15 B2g  34 Ag   24 B1g                
  2.053   2.062   2.087   2.156   2.160   2.165   2.183   2.240
 26 B2u  32 B3u  27 B2u  16 B1u  25 B1g  10 Au   33 B3u  26 B1g                
  2.240   2.397   2.464   2.579   2.580   2.587   2.587   2.596
 35 Ag   11 Au   16 B2g  34 B3u  36 Ag   27 B1g  28 B2u  37 Ag                 
  2.757   2.767   2.775   2.925   2.926   2.937   2.942   3.172
 35 B3u  29 B2u  36 B3u  28 B1g  38 Ag   30 B2u  37 B3u  29 B1g                
  3.343   3.349   3.667   4.605
 39 Ag   30 B1g  38 B3u  39 B3u                                                

 Occupation and symmetry of molecular orbitals

 Point group: D2h (8 irreducible representations).

                           Ag   B1g  B2g  B3g  Au   B1u  B2u  B3u   All 
 ------------------------------------------------------------------------
 All molecular orbitals:
  - Alpha                  39   30   16   11   11   16   30   39    192 
  - Beta                   39   30   16   11   11   16   30   39    192 
 ------------------------------------------------------------------------
 Alpha orbitals:
  - Frozen occupied        2    1    0    0    0    0    1    2     6   
  - Active occupied        4    2    1    1    0    1    3    3     15  
  - Active virtual         33   27   15   10   11   15   26   34    171 
  - Frozen virtual         0    0    0    0    0    0    0    0     0   
 ------------------------------------------------------------------------
 Beta orbitals:
  - Frozen occupied        2    1    0    0    0    0    1    2     6   
  - Active occupied        4    2    0    1    0    1    3    3     14  
  - Active virtual         33   27   16   10   11   15   26   34    172 
  - Frozen virtual         0    0    0    0    0    0    0    0     0   
 ------------------------------------------------------------------------

 Import integrals:   CPU 0.00 s  wall 0.00 s

 Import integrals:   CPU 168.16 s  wall 137.18 s

 MP2 amplitudes:   CPU 5.90 s  wall 4.06 s

           CCSD T amplitudes will be solved using DIIS.

           Start     Size      MaxIter   EConv     TConv     
           3         7         100       1.00e-06  1.00e-04  
 ------------------------------------------------------------------------------
           Energy (a.u.)   Ediff      Tdiff       Comment
 ------------------------------------------------------------------------------
          -231.18623186                           
     1    -231.20904742   2.28e-02   8.83e-01     
     2    -231.22994854   2.09e-02   1.09e-01     
     3    -231.23231009   2.36e-03   3.83e-02     
     4    -231.23473762   2.43e-03   1.30e-02     Switched to DIIS steps.
     5    -231.23558040   8.43e-04   9.57e-03     
     6    -231.23564841   6.80e-05   2.82e-03     
     7    -231.23565598   7.57e-06   8.98e-04     
     8    -231.23566412   8.13e-06   3.92e-04     
     9    -231.23566523   1.11e-06   8.48e-05     
    10    -231.23566547   2.44e-07   2.76e-05     
 ------------------------------------------------------------------------------
          -231.23566547                           CCSD T converged.

 SCF energy                 = -230.43547303
 MP2 energy                 = -231.18623186
 CCSD correlation energy     =   -0.80019244
 CCSD total energy           = -231.23566547

 CCSD  T1^2 = 0.0143  T2^2 = 0.3256  Leading amplitudes:

 Amplitude    Orbitals with energies
 -0.0635       1 (B1u) B                 ->    2 (B1u) B                  
              -0.6674                         -0.0478                     
 -0.0411       1 (B1u) A                 ->    2 (B1u) A                  
              -0.7546                         -0.1237                     
  0.0398       1 (B1u) B                 ->    3 (B1u) B                  
              -0.6674                         -0.0238                     
 -0.0353       1 (B1u) B                 ->    4 (B1u) B                  
              -0.6674                          0.0643                     

 Amplitude    Orbitals with energies
 -0.0714       1 (B3g) A     1 (B3g) B   ->    1 (Au) A      1 (Au) B     
              -0.5474       -0.5592           -0.0912       -0.0618       
  0.0714       1 (B3g) A     1 (B3g) B   ->    1 (Au) B      1 (Au) A     
              -0.5474       -0.5592           -0.0618       -0.0912       
  0.0714       1 (B3g) B     1 (B3g) A   ->    1 (Au) A      1 (Au) B     
              -0.5592       -0.5474           -0.0912       -0.0618       
 -0.0714       1 (B3g) B     1 (B3g) A   ->    1 (Au) B      1 (Au) A     
              -0.5592       -0.5474           -0.0618       -0.0912       

 Computing CCSD intermediates for later calculations
 Finished.

           CCSD Lambda amplitudes will be solved using DIIS.
           Start     Size      MaxIter   EConv     LConv     
           3         7         100       1.00e-06  1.00e-04  
 ------------------------------------------------------------------------------
            Enorm      Ldiff       Comment
 ------------------------------------------------------------------------------
     1     5.33e-02   4.46e-02     
     2     9.58e-03   2.58e-03     
     3     4.16e-03   1.97e-03     
     4     1.78e-03   8.08e-04     Switched to DIIS steps.
     5     6.38e-04   4.28e-04     
     6     2.50e-04   1.11e-04     
     7     8.84e-05   2.46e-05     
     8     2.38e-05   5.17e-06     
     9     7.27e-06   1.38e-06     
    10     2.40e-06   3.36e-07     
    11     7.63e-07   1.03e-07     
 ------------------------------------------------------------------------------
                                   CCSD Lambda converged.

 CCSD calculation:   CPU 994.37 s  wall 619.90 s

        Solving for CVS-EOMEE-CCSD B1u transitions.

        CVS-EOMEE-CCSD/MP2 right amplitudes will be solved using Davidson.
        Amplitudes will be solved using standard  algorithm.
     Hard-coded thresholds: 
     LinDepThresh=1.00e-15  NormThresh=1.00e-06  ReorthogonThresh=1.00e-02

      Roots     MaxVec    MaxIter   Precond   Conv      Shift    
      6         120       60        1         1.00e-05  0.00e+00  
 ------------------------------------------------------------------------------
      Iter ConvRoots NVecs ResNorm Current eigenvalues (eV)
 ------------------------------------------------------------------------------
      0    0      6     8.78e-01   296.6520   296.7473   300.7676   301.2772   302.9792   303.8303   
      1    0      12    1.14e+00   290.5786   290.7624   294.8512   295.4967   296.6386   297.2613   
      2    0      18    3.14e-02   284.4047   284.5352   288.6479   289.4947   289.8755   290.3489   
      3    0      24    9.75e-03   283.8534   284.2239   288.0594   288.9468   289.5055   289.7469   
      4    0      30    5.95e-03   283.6088   284.1585   287.7786   288.7330   289.3886   289.4430   
      5    0      36    1.59e-03   283.5347   284.1461   287.6905   288.6670   289.2295   289.3868   
      6    0      42    7.30e-04   283.5111   284.1447   287.6742   288.6468   289.1667   289.3812   
      7    1      48    5.51e-04   283.5050   284.1447*  287.6661   288.6360   289.1040   289.3795   
      8    1      53    2.81e-04   283.5020   284.1446*  287.6620   288.6313   289.0534   289.3789   
      9    3      58    8.54e-05   283.5016*  284.1446*  287.6610   288.6301   289.0339   289.3786*  
      10   5      61    4.11e-05   283.5016*  284.1446*  287.6612*  288.6304*  289.0291   289.3786*  
      11   5      62    1.22e-05   283.5016*  284.1445*  287.6611*  288.6304*  289.0257   289.3786*  
      12   5      63    5.40e-06   283.5016*  284.1445*  287.6611*  288.6304*  289.0249   289.3786*  
      13   6      64    3.53e-06   283.5016*  284.1445*  287.6611*  288.6304*  289.0246*  289.3786*  

     Davidson procedure converged

 EOMEE transition 1/B1u
 Total energy = -220.81717478 a.u.  Excitation energy = 283.5015 eV.
 R0^2 = 0.0000  R1^2 = 0.8723  R2_CCVV^2 = 0.0004  R2_COVV^2 = 0.0636  Res^2 = 1.31e-06
 Conv-d = yes

 Amplitude    Transitions between orbitals
 -0.8220       1 (B3u) B                 ->    1 (B2g) B                  
 -0.2335       1 (Ag) B                  ->    2 (B1u) B                  
 -0.1534       1 (B3u) B                 ->    4 (B2g) B                  
 -0.1467       1 (Ag) B                  ->    4 (B1u) B                  
  0.1415       1 (Ag) B                  ->    3 (B1u) B                  
  0.1118       1 (B3u) B                 ->    2 (B2g) B                  

              Summary of significant orbitals:

               Number  Type             Irrep      Energy
               2       Occ  Beta        1 (Ag)    -11.4938
               1       Occ  Beta        1 (B3u)    -11.4938
               21      Vir  Beta        1 (B2g)     -0.2541
               33      Vir  Beta        2 (B2g)      0.0060
               54      Vir  Beta        4 (B2g)      0.1697
               26      Vir  Beta        2 (B1u)     -0.0478
               29      Vir  Beta        3 (B1u)     -0.0238
               43      Vir  Beta        4 (B1u)      0.0643


 EOMEE transition 2/B1u
 Total energy = -220.79354534 a.u.  Excitation energy = 284.1445 eV.
 R0^2 = 0.0000  R1^2 = 0.8187  R2_CCVV^2 = 0.0004  R2_COVV^2 = 0.0904  Res^2 = 5.48e-06
 Conv-d = yes

 Amplitude    Transitions between orbitals
 -0.8525       2 (B3u) B                 ->    1 (B2g) B                  
  0.2190       1 (B1g) B                 ->    1 (Au) B                   
  0.0979       2 (B3u) B                 ->    2 (B2g) B                  
  0.0882       1 (B1g) B                 ->    2 (Au) B                   

              Summary of significant orbitals:

               Number  Type             Irrep      Energy
               5       Occ  Beta        1 (B1g)    -11.4678
               6       Occ  Beta        2 (B3u)    -11.4678
               21      Vir  Beta        1 (B2g)     -0.2541
               33      Vir  Beta        2 (B2g)      0.0060
               25      Vir  Beta        1 (Au)     -0.0618
               42      Vir  Beta        2 (Au)      0.0586


 EOMEE transition 3/B1u
 Total energy = -220.66431564 a.u.  Excitation energy = 287.6611 eV.
 R0^2 = 0.0000  R1^2 = 0.8530  R2_CCVV^2 = 0.0004  R2_COVV^2 = 0.0733  Res^2 = 9.98e-07
 Conv-d = yes

 Amplitude    Transitions between orbitals
  0.6136       1 (B1g) A                 ->    1 (Au) A                   
 -0.4913       2 (Ag) A                  ->    2 (B1u) A                  
  0.2420       2 (B3u) A                 ->    4 (B2g) A                  
 -0.1618       1 (B1g) A                 ->    2 (Au) A                   
 -0.1523       2 (B3u) A                 ->    3 (B2g) A                  
 -0.1467       1 (B1g) B                 ->    1 (Au) B                   
 -0.1049       2 (Ag) B                  ->    2 (B1u) B                  
 -0.1030       2 (B3u) B                 ->    1 (B2g) B                  

              Summary of significant orbitals:

               Number  Type             Irrep      Energy
               4       Occ  Alpha       2 (Ag)    -11.4683
               5       Occ  Alpha       1 (B1g)    -11.4672
               6       Occ  Alpha       2 (B3u)    -11.4671
               4       Occ  Beta        2 (Ag)    -11.4690
               5       Occ  Beta        1 (B1g)    -11.4678
               6       Occ  Beta        2 (B3u)    -11.4678
               44      Vir  Alpha       3 (B2g)      0.0614
               48      Vir  Alpha       4 (B2g)      0.1404
               23      Vir  Alpha       1 (Au)     -0.0912
               43      Vir  Alpha       2 (Au)      0.0539
               22      Vir  Alpha       2 (B1u)     -0.1237
               21      Vir  Beta        1 (B2g)     -0.2541
               25      Vir  Beta        1 (Au)     -0.0618
               26      Vir  Beta        2 (B1u)     -0.0478


 EOMEE transition 4/B1u
 Total energy = -220.62869495 a.u.  Excitation energy = 288.6303 eV.
 R0^2 = 0.0000  R1^2 = 0.8341  R2_CCVV^2 = 0.0004  R2_COVV^2 = 0.0827  Res^2 = 6.30e-06
 Conv-d = yes

 Amplitude    Transitions between orbitals
 -0.8222       1 (Ag) A                  ->    2 (B1u) A                  
  0.1962       1 (B3u) A                 ->    4 (B2g) A                  
  0.1542       1 (Ag) A                  ->    4 (B1u) A                  
  0.1368       1 (B3u) B                 ->    1 (B2g) B                  
 -0.1202       1 (B3u) A                 ->    3 (B2g) A                  

              Summary of significant orbitals:

               Number  Type             Irrep      Energy
               2       Occ  Alpha       1 (Ag)    -11.5054
               1       Occ  Alpha       1 (B3u)    -11.5054
               1       Occ  Beta        1 (B3u)    -11.4938
               44      Vir  Alpha       3 (B2g)      0.0614
               48      Vir  Alpha       4 (B2g)      0.1404
               22      Vir  Alpha       2 (B1u)     -0.1237
               42      Vir  Alpha       4 (B1u)      0.0491
               21      Vir  Beta        1 (B2g)     -0.2541


 EOMEE transition 5/B1u
 Total energy = -220.61420570 a.u.  Excitation energy = 289.0246 eV.
 R0^2 = 0.0000  R1^2 = 0.8222  R2_CCVV^2 = 0.0004  R2_COVV^2 = 0.0887  Res^2 = 3.63e-06
 Conv-d = yes

 Amplitude    Transitions between orbitals
 -0.6262       1 (B1g) B                 ->    1 (Au) B                   
 -0.3885       2 (Ag) B                  ->    2 (B1u) B                  
 -0.2364       2 (B3u) B                 ->    4 (B2g) B                  
 -0.2040       1 (B1g) B                 ->    2 (Au) B                   
  0.1940       2 (Ag) A                  ->    2 (B1u) A                  
 -0.1709       2 (Ag) B                  ->    4 (B1u) B                  
 -0.1560       2 (B3u) B                 ->    1 (B2g) B                  
 -0.1342       1 (B1g) A                 ->    1 (Au) A                   
  0.1180       2 (Ag) B                  ->    3 (B1u) B                  
 -0.1115       2 (B3u) B                 ->    3 (B2g) B                  

              Summary of significant orbitals:

               Number  Type             Irrep      Energy
               4       Occ  Alpha       2 (Ag)    -11.4683
               5       Occ  Alpha       1 (B1g)    -11.4672
               4       Occ  Beta        2 (Ag)    -11.4690
               5       Occ  Beta        1 (B1g)    -11.4678
               6       Occ  Beta        2 (B3u)    -11.4678
               23      Vir  Alpha       1 (Au)     -0.0912
               22      Vir  Alpha       2 (B1u)     -0.1237
               21      Vir  Beta        1 (B2g)     -0.2541
               44      Vir  Beta        3 (B2g)      0.0673
               54      Vir  Beta        4 (B2g)      0.1697
               25      Vir  Beta        1 (Au)     -0.0618
               42      Vir  Beta        2 (Au)      0.0586
               26      Vir  Beta        2 (B1u)     -0.0478
               29      Vir  Beta        3 (B1u)     -0.0238
               43      Vir  Beta        4 (B1u)      0.0643


 EOMEE transition 6/B1u
 Total energy = -220.60119895 a.u.  Excitation energy = 289.3786 eV.
 R0^2 = 0.0000  R1^2 = 0.7861  R2_CCVV^2 = 0.0004  R2_COVV^2 = 0.1067  Res^2 = 3.43e-06
 Conv-d = yes

 Amplitude    Transitions between orbitals
 -0.6629       2 (Ag) A                  ->    2 (B1u) A                  
 -0.5421       1 (B1g) A                 ->    1 (Au) A                   
  0.1124       1 (B1g) A                 ->    2 (Au) A                   
 -0.0922       1 (B1g) B                 ->    1 (Au) B                   

              Summary of significant orbitals:

               Number  Type             Irrep      Energy
               4       Occ  Alpha       2 (Ag)    -11.4683
               5       Occ  Alpha       1 (B1g)    -11.4672
               5       Occ  Beta        1 (B1g)    -11.4678
               23      Vir  Alpha       1 (Au)     -0.0912
               43      Vir  Alpha       2 (Au)      0.0539
               22      Vir  Alpha       2 (B1u)     -0.1237
               25      Vir  Beta        1 (Au)     -0.0618


      CVS-EOM-CCSD/MP2 left amplitudes will be solved using Davidson.
        Amplitudes will be solved using MOM  algorithm.
     Hard-coded thresholds: 
     LinDepThresh=1.00e-15  NormThresh=1.00e-06  ReorthogonThresh=1.00e-02

      Roots     MaxVec    MaxIter   Precond   Conv      Shift    
      6         120       60        1         1.00e-05  0.00e+00  
 ------------------------------------------------------------------------------
      Iter ConvRoots NVecs ResNorm Current eigenvalues (eV)
 ------------------------------------------------------------------------------
      0    0      6     2.15e-02   283.5016   284.1445   287.6611   288.6304   289.0246   289.3786   
      1    0      12    4.12e-03   283.5016   284.1444   287.6611   288.6302   289.0247   289.3784   
      2    0      18    5.39e-04   283.5016   284.1444   287.6611   288.6302   289.0249   289.3785   
      3    0      24    1.09e-04   283.5016   284.1444   287.6610   288.6302   289.0250   289.3784   
      4    1      30    2.48e-05   283.5016   284.1445   287.6610   288.6302   289.0250   289.3784*  
      5    5      35    1.20e-05   283.5016*  284.1445*  287.6610*  288.6301*  289.0250   289.3784*  
      6    5      36    1.09e-05   283.5016*  284.1445*  287.6610*  288.6301*  289.0250   289.3784*  
      7    5      37    7.60e-06   283.5016*  284.1445*  287.6610*  288.6301*  289.0251   289.3784*  
      8    6      38    5.98e-06   283.5016*  284.1445*  287.6610*  288.6301*  289.0250*  289.3784*  

     Davidson procedure converged

        Solving for CVS-EOMEE-CCSD B2u transitions.

        CVS-EOMEE-CCSD/MP2 right amplitudes will be solved using Davidson.
        Amplitudes will be solved using standard  algorithm.
     Hard-coded thresholds: 
     LinDepThresh=1.00e-15  NormThresh=1.00e-06  ReorthogonThresh=1.00e-02

      Roots     MaxVec    MaxIter   Precond   Conv      Shift    
      6         120       60        1         1.00e-05  0.00e+00  
 ------------------------------------------------------------------------------
      Iter ConvRoots NVecs ResNorm Current eigenvalues (eV)
 ------------------------------------------------------------------------------
      0    0      6     7.78e-01   305.4158   305.4604   306.9044   306.9413   307.1257   307.1453   
      1    0      12    1.13e+00   299.9727   300.0348   301.3146   301.3574   301.5098   301.5271   
      2    0      18    1.95e-02   293.1619   293.2329   294.3932   294.4410   294.5782   294.5976   
      3    0      24    5.00e-03   292.7394   292.8476   294.1007   294.1564   294.2762   294.3039   
      4    0      30    8.77e-03   292.4316   292.6237   293.9795   294.0409   294.1474   294.1835   
      5    0      36    4.89e-03   292.0744   292.3660   293.7473   293.8348   293.9494   293.9848   
      6    0      42    2.12e-03   291.9687   292.2944   293.6041   293.7227   293.8538   293.8922   
      7    0      48    1.22e-03   291.9508   292.2864   293.5469   293.6807   293.8373   293.8795   
      8    0      54    2.04e-03   291.9229   292.2746   293.4358   293.5867   293.8059   293.8528   
      9    0      60    1.53e-03   291.9017   292.2632   293.3123   293.4510   293.7739   293.8234   
      10   0      66    8.27e-04   291.8986   292.2607   293.2330   293.3627   293.7444   293.7962   
      11   1      72    2.83e-04   291.8975   292.2604*  293.2098   293.3362   293.7292   293.7821   
      12   1      77    1.46e-04   291.8963   292.2604*  293.1946   293.3216   293.7243   293.7778   
      13   2      82    1.29e-04   291.8957*  292.2604*  293.1883   293.3141   293.7199   293.7733   
      14   2      86    8.44e-05   291.8957*  292.2604*  293.1819   293.3070   293.7181   293.7718   
      15   2      90    4.48e-05   291.8957*  292.2604*  293.1790   293.3021   293.7161   293.7701   
      16   2      94    1.61e-05   291.8957*  292.2604*  293.1780   293.3012   293.7150   293.7692   
      17   4      98    1.04e-05   291.8957*  292.2604*  293.1771*  293.2990   293.7145*  293.7686   
      18   6      100   6.65e-06   291.8957*  292.2604*  293.1772*  293.2997*  293.7144*  293.7685*  

     Davidson procedure converged

 EOMEE transition 1/B2u
 Total energy = -220.50869669 a.u.  Excitation energy = 291.8957 eV.
 R0^2 = 0.0000  R1^2 = 0.8257  R2_CCVV^2 = 0.0004  R2_COVV^2 = 0.0870  Res^2 = 3.58e-06
 Conv-d = yes

 Amplitude    Transitions between orbitals
  0.4041       1 (B2u) A                 ->    7 (Ag) A                   
  0.3651       1 (B2u) B                 ->    7 (Ag) B                   
 -0.2447       2 (Ag) A                  ->    5 (B2u) A                  
 -0.2265       2 (Ag) B                  ->    5 (B2u) B                  
  0.1870       1 (B2u) A                 ->    10 (Ag) A                  
  0.1824       1 (B2u) B                 ->    10 (Ag) B                  
  0.1455       2 (Ag) A                  ->    8 (B2u) A                  
  0.1391       1 (B1g) A                 ->    6 (B3u) A                  
  0.1369       2 (Ag) B                  ->    8 (B2u) B                  
  0.1300       1 (B1g) B                 ->    6 (B3u) B                  
  0.1289       1 (B2u) A                 ->    11 (Ag) A                  
  0.1216       2 (B3u) A                 ->    4 (B1g) A                  
 -0.1153       2 (B3u) B                 ->    4 (B1g) B                  
  0.1088       1 (B2u) A                 ->    13 (Ag) A                  
 -0.1057       1 (B2u) B                 ->    13 (Ag) B                  
  0.1007       1 (B2u) B                 ->    11 (Ag) B                  

              Summary of significant orbitals:

               Number  Type             Irrep      Energy
               4       Occ  Alpha       2 (Ag)    -11.4683
               5       Occ  Alpha       1 (B1g)    -11.4672
               3       Occ  Alpha       1 (B2u)    -11.4684
               6       Occ  Alpha       2 (B3u)    -11.4671
               4       Occ  Beta        2 (Ag)    -11.4690
               5       Occ  Beta        1 (B1g)    -11.4678
               3       Occ  Beta        1 (B2u)    -11.4691
               6       Occ  Beta        2 (B3u)    -11.4678
               24      Vir  Alpha       7 (Ag)     -0.0864
               36      Vir  Alpha      10 (Ag)      0.0279
               39      Vir  Alpha      11 (Ag)      0.0349
               51      Vir  Alpha      13 (Ag)      0.1560
               28      Vir  Alpha       4 (B1g)     -0.0453
               26      Vir  Alpha       5 (B2u)     -0.0656
               41      Vir  Alpha       8 (B2u)      0.0426
               25      Vir  Alpha       6 (B3u)     -0.0693
               22      Vir  Beta        7 (Ag)     -0.0859
               37      Vir  Beta       10 (Ag)      0.0292
               39      Vir  Beta       11 (Ag)      0.0356
               50      Vir  Beta       13 (Ag)      0.1596
               28      Vir  Beta        4 (B1g)     -0.0452
               24      Vir  Beta        5 (B2u)     -0.0656
               41      Vir  Beta        8 (B2u)      0.0425
               23      Vir  Beta        6 (B3u)     -0.0686


 EOMEE transition 2/B2u
 Total energy = -220.49529354 a.u.  Excitation energy = 292.2604 eV.
 R0^2 = 0.0000  R1^2 = 0.8153  R2_CCVV^2 = 0.0004  R2_COVV^2 = 0.0921  Res^2 = 7.43e-06
 Conv-d = yes

 Amplitude    Transitions between orbitals
  0.4600       1 (B2u) B                 ->    7 (Ag) B                   
 -0.4362       1 (B2u) A                 ->    7 (Ag) A                   
 -0.2441       2 (Ag) B                  ->    5 (B2u) B                  
  0.2221       2 (Ag) A                  ->    5 (B2u) A                  
  0.2078       1 (B2u) B                 ->    10 (Ag) B                  
 -0.1841       1 (B2u) A                 ->    10 (Ag) A                  
  0.1369       1 (B1g) B                 ->    6 (B3u) B                  
  0.1283       2 (Ag) B                  ->    8 (B2u) B                  
 -0.1216       1 (B1g) A                 ->    6 (B3u) A                  
 -0.1135       2 (Ag) A                  ->    8 (B2u) A                  
 -0.1050       1 (B2u) A                 ->    11 (Ag) A                  
 -0.1039       1 (B2u) B                 ->    13 (Ag) B                  

              Summary of significant orbitals:

               Number  Type             Irrep      Energy
               4       Occ  Alpha       2 (Ag)    -11.4683
               5       Occ  Alpha       1 (B1g)    -11.4672
               3       Occ  Alpha       1 (B2u)    -11.4684
               4       Occ  Beta        2 (Ag)    -11.4690
               5       Occ  Beta        1 (B1g)    -11.4678
               3       Occ  Beta        1 (B2u)    -11.4691
               24      Vir  Alpha       7 (Ag)     -0.0864
               36      Vir  Alpha      10 (Ag)      0.0279
               39      Vir  Alpha      11 (Ag)      0.0349
               26      Vir  Alpha       5 (B2u)     -0.0656
               41      Vir  Alpha       8 (B2u)      0.0426
               25      Vir  Alpha       6 (B3u)     -0.0693
               22      Vir  Beta        7 (Ag)     -0.0859
               37      Vir  Beta       10 (Ag)      0.0292
               50      Vir  Beta       13 (Ag)      0.1596
               24      Vir  Beta        5 (B2u)     -0.0656
               41      Vir  Beta        8 (B2u)      0.0425
               23      Vir  Beta        6 (B3u)     -0.0686


 EOMEE transition 3/B2u
 Total energy = -220.46160258 a.u.  Excitation energy = 293.1772 eV.
 R0^2 = 0.0000  R1^2 = 0.8041  R2_CCVV^2 = 0.0004  R2_COVV^2 = 0.0978  Res^2 = 7.24e-06
 Conv-d = yes

 Amplitude    Transitions between orbitals
 -0.6222       1 (B2u) A                 ->    9 (Ag) A                    
  0.4012       1 (B2u) A                 ->    7 (Ag) A                    
  0.1795       1 (B2u) B                 ->    7 (Ag) B                    
 -0.1718       1 (B2u) B                 ->    9 (Ag) B                    
 -0.1580       1 (B1g) A                 ->    6 (B3u) A                   
  0.1573       2 (Ag) A                  ->    5 (B2u) A                   
 -0.1560       2 (Ag) A                  ->    8 (B2u) A                   
 -0.1249       2 (B3u) A                 ->    4 (B1g) A                   
  0.1025       2 (Ag) A                  ->    10 (B2u) A                  

              Summary of significant orbitals:

               Number  Type             Irrep      Energy
               4       Occ  Alpha       2 (Ag)    -11.4683
               5       Occ  Alpha       1 (B1g)    -11.4672
               3       Occ  Alpha       1 (B2u)    -11.4684
               6       Occ  Alpha       2 (B3u)    -11.4671
               3       Occ  Beta        1 (B2u)    -11.4691
               24      Vir  Alpha       7 (Ag)     -0.0864
               30      Vir  Alpha       9 (Ag)     -0.0164
               28      Vir  Alpha       4 (B1g)     -0.0453
               26      Vir  Alpha       5 (B2u)     -0.0656
               41      Vir  Alpha       8 (B2u)      0.0426
               59      Vir  Alpha      10 (B2u)      0.2082
               25      Vir  Alpha       6 (B3u)     -0.0693
               22      Vir  Beta        7 (Ag)     -0.0859
               31      Vir  Beta        9 (Ag)     -0.0137


 EOMEE transition 4/B2u
 Total energy = -220.45709861 a.u.  Excitation energy = 293.2997 eV.
 R0^2 = 0.0000  R1^2 = 0.8045  R2_CCVV^2 = 0.0004  R2_COVV^2 = 0.0975  Res^2 = 8.79e-06
 Conv-d = yes

 Amplitude    Transitions between orbitals
  0.6080       1 (B2u) B                 ->    9 (Ag) B                   
 -0.3987       1 (B2u) B                 ->    7 (Ag) B                   
 -0.2246       1 (B2u) A                 ->    9 (Ag) A                   
 -0.1783       2 (Ag) B                  ->    5 (B2u) B                  
  0.1685       1 (B1g) B                 ->    6 (B3u) B                  
  0.1596       2 (Ag) B                  ->    8 (B2u) B                  
 -0.1417       2 (B3u) B                 ->    4 (B1g) B                  
 -0.1030       1 (B2u) B                 ->    13 (Ag) B                  

              Summary of significant orbitals:

               Number  Type             Irrep      Energy
               3       Occ  Alpha       1 (B2u)    -11.4684
               4       Occ  Beta        2 (Ag)    -11.4690
               5       Occ  Beta        1 (B1g)    -11.4678
               3       Occ  Beta        1 (B2u)    -11.4691
               6       Occ  Beta        2 (B3u)    -11.4678
               30      Vir  Alpha       9 (Ag)     -0.0164
               22      Vir  Beta        7 (Ag)     -0.0859
               31      Vir  Beta        9 (Ag)     -0.0137
               50      Vir  Beta       13 (Ag)      0.1596
               28      Vir  Beta        4 (B1g)     -0.0452
               24      Vir  Beta        5 (B2u)     -0.0656
               41      Vir  Beta        8 (B2u)      0.0425
               23      Vir  Beta        6 (B3u)     -0.0686


 EOMEE transition 5/B2u
 Total energy = -220.44185991 a.u.  Excitation energy = 293.7144 eV.
 R0^2 = 0.0000  R1^2 = 0.7960  R2_CCVV^2 = 0.0004  R2_COVV^2 = 0.1018  Res^2 = 7.20e-06
 Conv-d = yes

 Amplitude    Transitions between orbitals
 -0.6418       1 (B1g) A                 ->    6 (B3u) A                  
 -0.2795       2 (Ag) A                  ->    5 (B2u) A                  
 -0.2522       2 (B3u) A                 ->    4 (B1g) A                  
 -0.2218       1 (B2u) A                 ->    8 (Ag) A                   
  0.1907       1 (B1g) A                 ->    8 (B3u) A                  
  0.1756       1 (B2u) A                 ->    9 (Ag) A                   
  0.1518       1 (B1g) A                 ->    9 (B3u) A                  
  0.1446       2 (B3u) A                 ->    5 (B1g) A                  
  0.1355       1 (B2u) A                 ->    11 (Ag) A                  
  0.1037       2 (Ag) A                  ->    8 (B2u) A                  

              Summary of significant orbitals:

               Number  Type             Irrep      Energy
               4       Occ  Alpha       2 (Ag)    -11.4683
               5       Occ  Alpha       1 (B1g)    -11.4672
               3       Occ  Alpha       1 (B2u)    -11.4684
               6       Occ  Alpha       2 (B3u)    -11.4671
               27      Vir  Alpha       8 (Ag)     -0.0457
               30      Vir  Alpha       9 (Ag)     -0.0164
               39      Vir  Alpha      11 (Ag)      0.0349
               28      Vir  Alpha       4 (B1g)     -0.0453
               38      Vir  Alpha       5 (B1g)      0.0330
               26      Vir  Alpha       5 (B2u)     -0.0656
               41      Vir  Alpha       8 (B2u)      0.0426
               25      Vir  Alpha       6 (B3u)     -0.0693
               35      Vir  Alpha       8 (B3u)      0.0243
               40      Vir  Alpha       9 (B3u)      0.0375


 EOMEE transition 6/B2u
 Total energy = -220.43987040 a.u.  Excitation energy = 293.7685 eV.
 R0^2 = 0.0000  R1^2 = 0.7978  R2_CCVV^2 = 0.0004  R2_COVV^2 = 0.1009  Res^2 = 5.63e-06
 Conv-d = yes

 Amplitude    Transitions between orbitals
  0.6353       1 (B1g) B                 ->    6 (B3u) B                  
  0.3021       2 (Ag) B                  ->    5 (B2u) B                  
 -0.2399       2 (B3u) B                 ->    4 (B1g) B                  
  0.2388       1 (B2u) B                 ->    8 (Ag) B                   
  0.1955       1 (B1g) B                 ->    8 (B3u) B                  
 -0.1604       1 (B2u) B                 ->    9 (Ag) B                   
  0.1434       1 (B1g) B                 ->    9 (B3u) B                  
 -0.1425       1 (B2u) B                 ->    11 (Ag) B                  
 -0.1369       2 (B3u) B                 ->    5 (B1g) B                  
 -0.1088       2 (Ag) B                  ->    8 (B2u) B                  

              Summary of significant orbitals:

               Number  Type             Irrep      Energy
               4       Occ  Beta        2 (Ag)    -11.4690
               5       Occ  Beta        1 (B1g)    -11.4678
               3       Occ  Beta        1 (B2u)    -11.4691
               6       Occ  Beta        2 (B3u)    -11.4678
               27      Vir  Beta        8 (Ag)     -0.0452
               31      Vir  Beta        9 (Ag)     -0.0137
               39      Vir  Beta       11 (Ag)      0.0356
               28      Vir  Beta        4 (B1g)     -0.0452
               38      Vir  Beta        5 (B1g)      0.0332
               24      Vir  Beta        5 (B2u)     -0.0656
               41      Vir  Beta        8 (B2u)      0.0425
               23      Vir  Beta        6 (B3u)     -0.0686
               35      Vir  Beta        8 (B3u)      0.0267
               40      Vir  Beta        9 (B3u)      0.0392


      CVS-EOM-CCSD/MP2 left amplitudes will be solved using Davidson.
        Amplitudes will be solved using MOM  algorithm.
     Hard-coded thresholds: 
     LinDepThresh=1.00e-15  NormThresh=1.00e-06  ReorthogonThresh=1.00e-02

      Roots     MaxVec    MaxIter   Precond   Conv      Shift    
      6         120       60        1         1.00e-05  0.00e+00  
 ------------------------------------------------------------------------------
      Iter ConvRoots NVecs ResNorm Current eigenvalues (eV)
 ------------------------------------------------------------------------------
      0    0      6     2.79e-02   291.8957   292.2604   293.1772   293.2997   293.7144   293.7685   
      1    0      12    4.52e-03   291.8956   292.2603   293.1772   293.2992   293.7144   293.7684   
      2    0      18    6.60e-04   291.8958   292.2601   293.1773   293.2993   293.7145   293.7684   
      3    0      24    6.71e-05   291.8958   292.2600   293.1772   293.2992   293.7145   293.7684   
      4    5      30    9.45e-06   291.8958   292.2600*  293.1772*  293.2992*  293.7144*  293.7684*  
      5    6      31    7.84e-06   291.8958*  292.2600*  293.1772*  293.2992*  293.7144*  293.7684*  

     Davidson procedure converged

        Solving for CVS-EOMEE-CCSD B3u transitions.

        CVS-EOMEE-CCSD/MP2 right amplitudes will be solved using Davidson.
        Amplitudes will be solved using standard  algorithm.
     Hard-coded thresholds: 
     LinDepThresh=1.00e-15  NormThresh=1.00e-06  ReorthogonThresh=1.00e-02

      Roots     MaxVec    MaxIter   Precond   Conv      Shift    
      6         120       60        1         1.00e-05  0.00e+00  
 ------------------------------------------------------------------------------
      Iter ConvRoots NVecs ResNorm Current eigenvalues (eV)
 ------------------------------------------------------------------------------
      0    0      6     7.78e-01   305.3869   305.4299   306.9270   306.9637   307.0973   307.1169   
      1    0      12    1.13e+00   299.9342   299.9944   301.3490   301.3927   301.4696   301.4861   
      2    0      18    1.95e-02   293.1242   293.1927   294.4270   294.4774   294.5408   294.5574   
      3    0      24    4.99e-03   292.7040   292.8093   294.1306   294.1879   294.2437   294.2663   
      4    0      30    8.78e-03   292.3978   292.5858   293.9996   294.0633   294.1247   294.1522   
      5    0      36    4.89e-03   292.0438   292.3288   293.7443   293.8447   293.9395   293.9712   
      6    0      42    2.12e-03   291.9406   292.2583   293.5913   293.7195   293.8513   293.8910   
      7    0      48    1.23e-03   291.9236   292.2506   293.5306   293.6708   293.8392   293.8829   
      8    0      54    2.06e-03   291.8968   292.2393   293.4135   293.5670   293.8140   293.8612   
      9    0      60    1.59e-03   291.8766   292.2284   293.2855   293.4241   293.7847   293.8314   
      10   0      66    8.89e-04   291.8736   292.2260   293.2026   293.3313   293.7550   293.8001   
Found complex roots...
      11   1      72    3.22e-04   291.8725   292.2258*  293.1787   293.3040   293.7376   293.7798   
      12   1      77    1.82e-04   291.8714   292.2257*  293.1627   293.2879   293.7327   293.7731   
      13   2      82    2.46e-04   291.8709*  292.2257*  293.1563   293.2800   293.7246   293.7574   
      14   2      86    3.63e-04   291.8708*  292.2257*  293.1496   293.2718   293.7119   293.7449   
      15   2      90    1.83e-03   291.8709*  292.2257*  293.1465   293.2656   293.5772   293.7307   
      16   2      94    1.93e-03   291.8708*  292.2257*  293.1389   293.1777   293.2716   293.7266   
      17   2      98    9.91e-04   291.8709*  292.2257*  292.9236   293.1456   293.2654   293.7216   
      18   3      102   5.27e-04   291.8709*  292.2257*  292.8171   293.1459*  293.2657   293.7125   
      19   4      105   1.63e-03   291.8709*  292.2257*  292.7681   293.1458*  293.2649*  293.5843   
      20   4      107   7.42e-04   291.8709*  292.2257*  292.7484   293.1458*  293.2648*  293.3959   
      21   4      109   2.79e-04   291.8709*  292.2257*  292.7398   293.1457*  293.2648*  293.3163   
      22   4      111   1.10e-04   291.8709*  292.2257*  292.7372   293.1457*  293.2648*  293.2915   
      23   4      113   5.75e-05   291.8709*  292.2257*  292.7358   293.1457*  293.2648*  293.2771   
      24   4      115   2.74e-05   291.8709*  292.2257*  292.7354   293.1457*  293.2648*  293.2725   
Found complex roots...
      25   5      117   1.15e-05   291.8709*  292.2257*  292.7350*  293.1457*  293.2648*  293.2690   
      26   5      118   5.91e-06   291.8709*  292.2257*  292.7350*  293.1457*  293.2648*  293.2687   
      27   6      119   4.58e-06   291.8709*  292.2257*  292.7350*  293.1457*  293.2648*  293.2684*  

     Davidson procedure converged

 EOMEE transition 1/B3u
 Total energy = -220.50960861 a.u.  Excitation energy = 291.8709 eV.
 R0^2 = 0.0000  R1^2 = 0.8254  R2_CCVV^2 = 0.0004  R2_COVV^2 = 0.0871  Res^2 = 4.90e-06
 Conv-d = yes

 Amplitude    Transitions between orbitals
  0.4074       2 (B3u) A                 ->    7 (Ag) A                   
  0.3701       2 (B3u) B                 ->    7 (Ag) B                   
  0.2456       1 (B1g) A                 ->    5 (B2u) A                  
 -0.2283       1 (B1g) B                 ->    5 (B2u) B                  
  0.1879       2 (B3u) A                 ->    10 (Ag) A                  
  0.1841       2 (B3u) B                 ->    10 (Ag) B                  
 -0.1456       1 (B1g) A                 ->    8 (B2u) A                  
  0.1376       1 (B1g) B                 ->    8 (B2u) B                  
 -0.1337       2 (Ag) A                  ->    6 (B3u) A                  
  0.1291       2 (B3u) A                 ->    11 (Ag) A                  
  0.1252       2 (Ag) B                  ->    6 (B3u) B                  
  0.1168       1 (B2u) A                 ->    4 (B1g) A                  
 -0.1111       1 (B2u) B                 ->    4 (B1g) B                  
  0.1090       2 (B3u) A                 ->    13 (Ag) A                  
 -0.1063       2 (B3u) B                 ->    13 (Ag) B                  
  0.1015       2 (B3u) B                 ->    11 (Ag) B                  

              Summary of significant orbitals:

               Number  Type             Irrep      Energy
               4       Occ  Alpha       2 (Ag)    -11.4683
               5       Occ  Alpha       1 (B1g)    -11.4672
               3       Occ  Alpha       1 (B2u)    -11.4684
               6       Occ  Alpha       2 (B3u)    -11.4671
               4       Occ  Beta        2 (Ag)    -11.4690
               5       Occ  Beta        1 (B1g)    -11.4678
               3       Occ  Beta        1 (B2u)    -11.4691
               6       Occ  Beta        2 (B3u)    -11.4678
               24      Vir  Alpha       7 (Ag)     -0.0864
               36      Vir  Alpha      10 (Ag)      0.0279
               39      Vir  Alpha      11 (Ag)      0.0349
               51      Vir  Alpha      13 (Ag)      0.1560
               28      Vir  Alpha       4 (B1g)     -0.0453
               26      Vir  Alpha       5 (B2u)     -0.0656
               41      Vir  Alpha       8 (B2u)      0.0426
               25      Vir  Alpha       6 (B3u)     -0.0693
               22      Vir  Beta        7 (Ag)     -0.0859
               37      Vir  Beta       10 (Ag)      0.0292
               39      Vir  Beta       11 (Ag)      0.0356
               50      Vir  Beta       13 (Ag)      0.1596
               28      Vir  Beta        4 (B1g)     -0.0452
               24      Vir  Beta        5 (B2u)     -0.0656
               41      Vir  Beta        8 (B2u)      0.0425
               23      Vir  Beta        6 (B3u)     -0.0686


 EOMEE transition 2/B3u
 Total energy = -220.49656815 a.u.  Excitation energy = 292.2257 eV.
 R0^2 = 0.0000  R1^2 = 0.8153  R2_CCVV^2 = 0.0004  R2_COVV^2 = 0.0921  Res^2 = 7.07e-06
 Conv-d = yes

 Amplitude    Transitions between orbitals
  0.4623       2 (B3u) B                 ->    7 (Ag) B                   
 -0.4390       2 (B3u) A                 ->    7 (Ag) A                   
 -0.2446       1 (B1g) B                 ->    5 (B2u) B                  
 -0.2233       1 (B1g) A                 ->    5 (B2u) A                  
  0.2085       2 (B3u) B                 ->    10 (Ag) B                  
 -0.1851       2 (B3u) A                 ->    10 (Ag) A                  
  0.1301       2 (Ag) B                  ->    6 (B3u) B                  
  0.1284       1 (B1g) B                 ->    8 (B2u) B                  
  0.1162       2 (Ag) A                  ->    6 (B3u) A                  
  0.1141       1 (B1g) A                 ->    8 (B2u) A                  
 -0.1058       2 (B3u) A                 ->    11 (Ag) A                  
 -0.1040       2 (B3u) B                 ->    13 (Ag) B                  

              Summary of significant orbitals:

               Number  Type             Irrep      Energy
               4       Occ  Alpha       2 (Ag)    -11.4683
               5       Occ  Alpha       1 (B1g)    -11.4672
               6       Occ  Alpha       2 (B3u)    -11.4671
               4       Occ  Beta        2 (Ag)    -11.4690
               5       Occ  Beta        1 (B1g)    -11.4678
               6       Occ  Beta        2 (B3u)    -11.4678
               24      Vir  Alpha       7 (Ag)     -0.0864
               36      Vir  Alpha      10 (Ag)      0.0279
               39      Vir  Alpha      11 (Ag)      0.0349
               26      Vir  Alpha       5 (B2u)     -0.0656
               41      Vir  Alpha       8 (B2u)      0.0426
               25      Vir  Alpha       6 (B3u)     -0.0693
               22      Vir  Beta        7 (Ag)     -0.0859
               37      Vir  Beta       10 (Ag)      0.0292
               50      Vir  Beta       13 (Ag)      0.1596
               24      Vir  Beta        5 (B2u)     -0.0656
               41      Vir  Beta        8 (B2u)      0.0425
               23      Vir  Beta        6 (B3u)     -0.0686


 EOMEE transition 3/B3u
 Total energy = -220.47785358 a.u.  Excitation energy = 292.7349 eV.
 R0^2 = 0.0000  R1^2 = 0.8261  R2_CCVV^2 = 0.0003  R2_COVV^2 = 0.0868  Res^2 = 2.87e-06
 Conv-d = yes

 Amplitude    Transitions between orbitals
  0.4789       1 (B3u) B                 ->    7 (Ag) B                    
  0.3479       1 (Ag) B                  ->    6 (B3u) B                   
  0.2875       1 (B3u) B                 ->    10 (Ag) B                   
  0.2221       1 (B3u) A                 ->    7 (Ag) A                    
  0.2024       1 (Ag) B                  ->    9 (B3u) B                   
 -0.1744       1 (Ag) A                  ->    6 (B3u) A                   
  0.1589       1 (B3u) B                 ->    8 (Ag) B                    
  0.1514       1 (B3u) A                 ->    10 (Ag) A                   
  0.1475       1 (Ag) B                  ->    8 (B3u) B                   
 -0.1434       1 (B3u) B                 ->    13 (Ag) B                   
  0.1397       1 (Ag) B                  ->    12 (B3u) B                  
  0.1166       1 (Ag) A                  ->    9 (B3u) A                   
  0.1050       1 (B3u) B                 ->    16 (Ag) B                   
  0.1004       1 (B3u) B                 ->    9 (Ag) B                    

              Summary of significant orbitals:

               Number  Type             Irrep      Energy
               2       Occ  Alpha       1 (Ag)    -11.5054
               1       Occ  Alpha       1 (B3u)    -11.5054
               2       Occ  Beta        1 (Ag)    -11.4938
               1       Occ  Beta        1 (B3u)    -11.4938
               24      Vir  Alpha       7 (Ag)     -0.0864
               36      Vir  Alpha      10 (Ag)      0.0279
               25      Vir  Alpha       6 (B3u)     -0.0693
               40      Vir  Alpha       9 (B3u)      0.0375
               22      Vir  Beta        7 (Ag)     -0.0859
               27      Vir  Beta        8 (Ag)     -0.0452
               31      Vir  Beta        9 (Ag)     -0.0137
               37      Vir  Beta       10 (Ag)      0.0292
               50      Vir  Beta       13 (Ag)      0.1596
               67      Vir  Beta       16 (Ag)      0.2831
               23      Vir  Beta        6 (B3u)     -0.0686
               35      Vir  Beta        8 (B3u)      0.0267
               40      Vir  Beta        9 (B3u)      0.0392
               58      Vir  Beta       12 (B3u)      0.2042


 EOMEE transition 4/B3u
 Total energy = -220.46275876 a.u.  Excitation energy = 293.1457 eV.
 R0^2 = 0.0000  R1^2 = 0.8046  R2_CCVV^2 = 0.0004  R2_COVV^2 = 0.0975  Res^2 = 3.02e-06
 Conv-d = yes

 Amplitude    Transitions between orbitals
  0.6303       2 (B3u) A                 ->    9 (Ag) A                    
 -0.3944       2 (B3u) A                 ->    7 (Ag) A                    
 -0.1768       2 (B3u) B                 ->    7 (Ag) B                    
  0.1749       2 (B3u) B                 ->    9 (Ag) B                    
  0.1654       1 (B1g) A                 ->    5 (B2u) A                   
 -0.1602       1 (B1g) A                 ->    8 (B2u) A                   
 -0.1424       2 (Ag) A                  ->    6 (B3u) A                   
  0.1152       1 (B2u) A                 ->    4 (B1g) A                   
  0.1048       1 (B1g) A                 ->    10 (B2u) A                  
  0.1017       2 (B3u) A                 ->    13 (Ag) A                   

              Summary of significant orbitals:

               Number  Type             Irrep      Energy
               4       Occ  Alpha       2 (Ag)    -11.4683
               5       Occ  Alpha       1 (B1g)    -11.4672
               3       Occ  Alpha       1 (B2u)    -11.4684
               6       Occ  Alpha       2 (B3u)    -11.4671
               6       Occ  Beta        2 (B3u)    -11.4678
               24      Vir  Alpha       7 (Ag)     -0.0864
               30      Vir  Alpha       9 (Ag)     -0.0164
               51      Vir  Alpha      13 (Ag)      0.1560
               28      Vir  Alpha       4 (B1g)     -0.0453
               26      Vir  Alpha       5 (B2u)     -0.0656
               41      Vir  Alpha       8 (B2u)      0.0426
               59      Vir  Alpha      10 (B2u)      0.2082
               25      Vir  Alpha       6 (B3u)     -0.0693
               22      Vir  Beta        7 (Ag)     -0.0859
               31      Vir  Beta        9 (Ag)     -0.0137


 EOMEE transition 5/B3u
 Total energy = -220.45838235 a.u.  Excitation energy = 293.2648 eV.
 R0^2 = 0.0000  R1^2 = 0.8049  R2_CCVV^2 = 0.0004  R2_COVV^2 = 0.0974  Res^2 = 4.02e-06
 Conv-d = yes

 Amplitude    Transitions between orbitals
 -0.6185       2 (B3u) B                 ->    9 (Ag) B                   
  0.3907       2 (B3u) B                 ->    7 (Ag) B                   
  0.2277       2 (B3u) A                 ->    9 (Ag) A                   
  0.1889       1 (B1g) B                 ->    5 (B2u) B                  
 -0.1652       1 (B1g) B                 ->    8 (B2u) B                  
 -0.1471       2 (Ag) B                  ->    6 (B3u) B                  
  0.1273       1 (B2u) B                 ->    4 (B1g) B                  
  0.1059       2 (B3u) B                 ->    13 (Ag) B                  

              Summary of significant orbitals:

               Number  Type             Irrep      Energy
               6       Occ  Alpha       2 (B3u)    -11.4671
               4       Occ  Beta        2 (Ag)    -11.4690
               5       Occ  Beta        1 (B1g)    -11.4678
               3       Occ  Beta        1 (B2u)    -11.4691
               6       Occ  Beta        2 (B3u)    -11.4678
               30      Vir  Alpha       9 (Ag)     -0.0164
               22      Vir  Beta        7 (Ag)     -0.0859
               31      Vir  Beta        9 (Ag)     -0.0137
               50      Vir  Beta       13 (Ag)      0.1596
               28      Vir  Beta        4 (B1g)     -0.0452
               24      Vir  Beta        5 (B2u)     -0.0656
               41      Vir  Beta        8 (B2u)      0.0425
               23      Vir  Beta        6 (B3u)     -0.0686


 EOMEE transition 6/B3u
 Total energy = -220.45825137 a.u.  Excitation energy = 293.2684 eV.
 R0^2 = 0.0000  R1^2 = 0.8142  R2_CCVV^2 = 0.0004  R2_COVV^2 = 0.0927  Res^2 = 5.62e-06
 Conv-d = yes

 Amplitude    Transitions between orbitals
  0.5051       1 (B3u) A                 ->    7 (Ag) A                    
 -0.3443       1 (Ag) A                  ->    6 (B3u) A                   
 -0.3086       1 (B3u) B                 ->    7 (Ag) B                    
  0.2858       1 (B3u) A                 ->    10 (Ag) A                   
  0.2009       1 (Ag) A                  ->    9 (B3u) A                   
 -0.1790       1 (Ag) B                  ->    6 (B3u) B                   
  0.1493       1 (B3u) A                 ->    8 (Ag) A                    
 -0.1473       1 (B3u) B                 ->    10 (Ag) B                   
  0.1402       1 (B3u) A                 ->    13 (Ag) A                   
  0.1336       1 (Ag) A                  ->    12 (B3u) A                  
  0.1249       1 (Ag) A                  ->    8 (B3u) A                   

              Summary of significant orbitals:

               Number  Type             Irrep      Energy
               2       Occ  Alpha       1 (Ag)    -11.5054
               1       Occ  Alpha       1 (B3u)    -11.5054
               2       Occ  Beta        1 (Ag)    -11.4938
               1       Occ  Beta        1 (B3u)    -11.4938
               24      Vir  Alpha       7 (Ag)     -0.0864
               27      Vir  Alpha       8 (Ag)     -0.0457
               36      Vir  Alpha      10 (Ag)      0.0279
               51      Vir  Alpha      13 (Ag)      0.1560
               25      Vir  Alpha       6 (B3u)     -0.0693
               35      Vir  Alpha       8 (B3u)      0.0243
               40      Vir  Alpha       9 (B3u)      0.0375
               58      Vir  Alpha      12 (B3u)      0.2016
               22      Vir  Beta        7 (Ag)     -0.0859
               37      Vir  Beta       10 (Ag)      0.0292
               23      Vir  Beta        6 (B3u)     -0.0686


      CVS-EOM-CCSD/MP2 left amplitudes will be solved using Davidson.
        Amplitudes will be solved using MOM  algorithm.
     Hard-coded thresholds: 
     LinDepThresh=1.00e-15  NormThresh=1.00e-06  ReorthogonThresh=1.00e-02

      Roots     MaxVec    MaxIter   Precond   Conv      Shift    
      6         120       60        1         1.00e-05  0.00e+00  
 ------------------------------------------------------------------------------
      Iter ConvRoots NVecs ResNorm Current eigenvalues (eV)
 ------------------------------------------------------------------------------
      0    0      6     2.38e-02   291.8709   292.2257   292.7350   293.1457   293.2648   293.2684   
      1    0      12    4.05e-03   291.8708   292.2256   292.7351   293.1455   293.2649   293.2683   
      2    0      18    5.77e-04   291.8710   292.2254   292.7351   293.1455   293.2649   293.2683   
      3    0      24    6.64e-05   291.8710   292.2254   292.7350   293.1455   293.2648   293.2682   
      4    3      30    1.18e-05   291.8710   292.2254*  292.7350   293.1455*  293.2649*  293.2682   
      5    5      33    7.72e-06   291.8710*  292.2254*  292.7350*  293.1455*  293.2649*  293.2682   
      6    5      34    5.01e-05   291.8710*  292.2254*  292.7350*  293.1455*  293.2649*  293.2681   
      7    6      35    6.93e-06   291.8710*  292.2254*  292.7350*  293.1455*  293.2649*  293.2682*  

     Davidson procedure converged

 CVS-EOMEE-CCSD calculation:   CPU 47023.94 s  wall 35929.74 s


 Start computing the transition properties

 ------------------------------------------------------------------------------
 State A: ccsd: 0/Ag
 State B: cvs_eomee_ccsd/uhfref: 1/B1u
 Transition dipole moment (a.u.):
   A->B: 0.081113 (X 0.000000, Y 0.000000, Z -0.081113)
   B->A: 0.082529 (X 0.000000, Y 0.000000, Z -0.082529)
 Oscillator strength (a.u.): 0.046496
 Norm of one-particle transition density matrix:
   A->B: 0.914044;   B->A: 0.915390
   ||gamma^AB||*||gamma^BA||: 0.836707

 ------------------------------------------------------------------------------
 State A: ccsd: 0/Ag
 State B: cvs_eomee_ccsd/uhfref: 2/B1u
 Transition dipole moment (a.u.):
   A->B: 0.070169 (X 0.000000, Y 0.000000, Z 0.070169)
   B->A: 0.070282 (X 0.000000, Y 0.000000, Z 0.070282)
 Oscillator strength (a.u.): 0.034331
 Norm of one-particle transition density matrix:
   A->B: 0.884798;   B->A: 0.872807
   ||gamma^AB||*||gamma^BA||: 0.772258

 ------------------------------------------------------------------------------
 State A: ccsd: 0/Ag
 State B: cvs_eomee_ccsd/uhfref: 3/B1u
 Transition dipole moment (a.u.):
   A->B: 0.094255 (X 0.000000, Y 0.000000, Z 0.094255)
   B->A: 0.096274 (X 0.000000, Y 0.000000, Z 0.096274)
 Oscillator strength (a.u.): 0.063951
 Norm of one-particle transition density matrix:
   A->B: 0.897866;   B->A: 0.901690
   ||gamma^AB||*||gamma^BA||: 0.809597

 ------------------------------------------------------------------------------
 State A: ccsd: 0/Ag
 State B: cvs_eomee_ccsd/uhfref: 4/B1u
 Transition dipole moment (a.u.):
   A->B: 0.074212 (X 0.000000, Y 0.000000, Z 0.074212)
   B->A: 0.075140 (X 0.000000, Y 0.000000, Z 0.075140)
 Oscillator strength (a.u.): 0.039431
 Norm of one-particle transition density matrix:
   A->B: 0.895665;   B->A: 0.894126
   ||gamma^AB||*||gamma^BA||: 0.800837

 ------------------------------------------------------------------------------
 State A: ccsd: 0/Ag
 State B: cvs_eomee_ccsd/uhfref: 5/B1u
 Transition dipole moment (a.u.):
   A->B: 0.130499 (X 0.000000, Y 0.000000, Z -0.130499)
   B->A: 0.130242 (X 0.000000, Y 0.000000, Z -0.130242)
 Oscillator strength (a.u.): 0.120352
 Norm of one-particle transition density matrix:
   A->B: 0.892789;   B->A: 0.880042
   ||gamma^AB||*||gamma^BA||: 0.785692

 ------------------------------------------------------------------------------
 State A: ccsd: 0/Ag
 State B: cvs_eomee_ccsd/uhfref: 6/B1u
 Transition dipole moment (a.u.):
   A->B: 0.036806 (X 0.000000, Y 0.000000, Z -0.036806)
   B->A: 0.027142 (X 0.000000, Y 0.000000, Z -0.027142)
 Oscillator strength (a.u.): 0.007082
 Norm of one-particle transition density matrix:
   A->B: 0.862808;   B->A: 0.849579
   ||gamma^AB||*||gamma^BA||: 0.733024

 ------------------------------------------------------------------------------
 State A: ccsd: 0/Ag
 State B: cvs_eomee_ccsd/uhfref: 1/B2u
 Transition dipole moment (a.u.):
   A->B: 0.002051 (X 0.000000, Y 0.002051, Z 0.000000)
   B->A: 0.002078 (X 0.000000, Y 0.002078, Z 0.000000)
 Oscillator strength (a.u.): 0.000030
 Norm of one-particle transition density matrix:
   A->B: 0.906717;   B->A: 0.874871
   ||gamma^AB||*||gamma^BA||: 0.793260

 ------------------------------------------------------------------------------
 State A: ccsd: 0/Ag
 State B: cvs_eomee_ccsd/uhfref: 2/B2u
 Transition dipole moment (a.u.):
   A->B: 0.065238 (X 0.000000, Y -0.065238, Z 0.000000)
   B->A: 0.063822 (X 0.000000, Y -0.063822, Z 0.000000)
 Oscillator strength (a.u.): 0.029813
 Norm of one-particle transition density matrix:
   A->B: 0.901935;   B->A: 0.866544
   ||gamma^AB||*||gamma^BA||: 0.781567

 ------------------------------------------------------------------------------
 State A: ccsd: 0/Ag
 State B: cvs_eomee_ccsd/uhfref: 3/B2u
 Transition dipole moment (a.u.):
   A->B: 0.024828 (X 0.000000, Y -0.024828, Z 0.000000)
   B->A: 0.024276 (X 0.000000, Y -0.024276, Z 0.000000)
 Oscillator strength (a.u.): 0.004329
 Norm of one-particle transition density matrix:
   A->B: 0.897005;   B->A: 0.856562
   ||gamma^AB||*||gamma^BA||: 0.768340

 ------------------------------------------------------------------------------
 State A: ccsd: 0/Ag
 State B: cvs_eomee_ccsd/uhfref: 4/B2u
 Transition dipole moment (a.u.):
   A->B: 0.045112 (X 0.000000, Y -0.045112, Z 0.000000)
   B->A: 0.044149 (X 0.000000, Y -0.044149, Z 0.000000)
 Oscillator strength (a.u.): 0.014312
 Norm of one-particle transition density matrix:
   A->B: 0.897839;   B->A: 0.856941
   ||gamma^AB||*||gamma^BA||: 0.769395

 ------------------------------------------------------------------------------
 State A: ccsd: 0/Ag
 State B: cvs_eomee_ccsd/uhfref: 5/B2u
 Transition dipole moment (a.u.):
   A->B: 0.000422 (X 0.000000, Y 0.000422, Z 0.000000)
   B->A: 0.000580 (X 0.000000, Y 0.000580, Z 0.000000)
 Oscillator strength (a.u.): 0.000002
 Norm of one-particle transition density matrix:
   A->B: 0.892619;   B->A: 0.849721
   ||gamma^AB||*||gamma^BA||: 0.758477

 ------------------------------------------------------------------------------
 State A: ccsd: 0/Ag
 State B: cvs_eomee_ccsd/uhfref: 6/B2u
 Transition dipole moment (a.u.):
   A->B: 0.000987 (X 0.000000, Y 0.000987, Z 0.000000)
   B->A: 0.001106 (X 0.000000, Y 0.001106, Z 0.000000)
 Oscillator strength (a.u.): 0.000008
 Norm of one-particle transition density matrix:
   A->B: 0.894436;   B->A: 0.850768
   ||gamma^AB||*||gamma^BA||: 0.760958

 ------------------------------------------------------------------------------
 State A: ccsd: 0/Ag
 State B: cvs_eomee_ccsd/uhfref: 1/B3u
 Transition dipole moment (a.u.):
   A->B: 0.001293 (X 0.001293, Y 0.000000, Z 0.000000)
   B->A: 0.001375 (X 0.001375, Y 0.000000, Z 0.000000)
 Oscillator strength (a.u.): 0.000013
 Norm of one-particle transition density matrix:
   A->B: 0.906606;   B->A: 0.874679
   ||gamma^AB||*||gamma^BA||: 0.792989

 ------------------------------------------------------------------------------
 State A: ccsd: 0/Ag
 State B: cvs_eomee_ccsd/uhfref: 2/B3u
 Transition dipole moment (a.u.):
   A->B: 0.035347 (X -0.035347, Y 0.000000, Z 0.000000)
   B->A: 0.034552 (X -0.034552, Y 0.000000, Z 0.000000)
 Oscillator strength (a.u.): 0.008744
 Norm of one-particle transition density matrix:
   A->B: 0.901919;   B->A: 0.866520
   ||gamma^AB||*||gamma^BA||: 0.781531

 ------------------------------------------------------------------------------
 State A: ccsd: 0/Ag
 State B: cvs_eomee_ccsd/uhfref: 3/B3u
 Transition dipole moment (a.u.):
   A->B: 0.019375 (X 0.019375, Y 0.000000, Z 0.000000)
   B->A: 0.018916 (X 0.018916, Y 0.000000, Z 0.000000)
 Oscillator strength (a.u.): 0.002628
 Norm of one-particle transition density matrix:
   A->B: 0.906586;   B->A: 0.880657
   ||gamma^AB||*||gamma^BA||: 0.798391

 ------------------------------------------------------------------------------
 State A: ccsd: 0/Ag
 State B: cvs_eomee_ccsd/uhfref: 4/B3u
 Transition dipole moment (a.u.):
   A->B: 0.014288 (X 0.014288, Y 0.000000, Z 0.000000)
   B->A: 0.013844 (X 0.013844, Y 0.000000, Z 0.000000)
 Oscillator strength (a.u.): 0.001421
 Norm of one-particle transition density matrix:
   A->B: 0.897265;   B->A: 0.856954
   ||gamma^AB||*||gamma^BA||: 0.768914

 ------------------------------------------------------------------------------
 State A: ccsd: 0/Ag
 State B: cvs_eomee_ccsd/uhfref: 5/B3u
 Transition dipole moment (a.u.):
   A->B: 0.028540 (X 0.028540, Y 0.000000, Z 0.000000)
   B->A: 0.028127 (X 0.028127, Y 0.000000, Z 0.000000)
 Oscillator strength (a.u.): 0.005767
 Norm of one-particle transition density matrix:
   A->B: 0.897990;   B->A: 0.857330
   ||gamma^AB||*||gamma^BA||: 0.769874

 ------------------------------------------------------------------------------
 State A: ccsd: 0/Ag
 State B: cvs_eomee_ccsd/uhfref: 6/B3u
 Transition dipole moment (a.u.):
   A->B: 0.056766 (X -0.056766, Y 0.000000, Z 0.000000)
   B->A: 0.056075 (X -0.056075, Y 0.000000, Z 0.000000)
 Oscillator strength (a.u.): 0.022871
 Norm of one-particle transition density matrix:
   A->B: 0.902432;   B->A: 0.872561
   ||gamma^AB||*||gamma^BA||: 0.787427


 All requested transition properties have been computed

 Transition Properties:   CPU 79.23 s  wall 53.48 s

 Total ccman2 time:   CPU 48294.38 s  wall 36757.66 s


 --------------------------------------------------------------
             Orbital Energies (a.u.) and Symmetries
 --------------------------------------------------------------

 Alpha MOs, Unrestricted
 -- Occupied --                  
-11.505 -11.505 -11.468 -11.468 -11.467 -11.467  -1.402  -1.279
  1 B3u   1 Ag    1 B2u   2 Ag    1 B1g   2 B3u   3 Ag    3 B3u                
 -1.241  -1.061  -1.060  -0.937  -0.866  -0.858  -0.824  -0.805
  2 B2u   4 Ag    2 B1g   5 Ag    4 B3u   3 B2u   5 B3u   4 B2u                
 -0.755  -0.720  -0.720  -0.620  -0.547
  1 B1u   6 Ag    3 B1g   1 B2g   1 B3g                                        
 -- Virtual --                   
 -0.124  -0.091  -0.086  -0.069  -0.066  -0.046  -0.045  -0.031
  2 B1u   1 Au    7 Ag    6 B3u   5 B2u   8 Ag    4 B1g   3 B1u                
 -0.016  -0.016  -0.003   0.004   0.015   0.024   0.028   0.029
  9 Ag    7 B3u   2 B2g   2 B3g   6 B2u   8 B3u  10 Ag    7 B2u                
  0.033   0.035   0.038   0.043   0.049   0.054   0.061   0.070
  5 B1g  11 Ag    9 B3u   8 B2u   4 B1u   2 Au    3 B2g  10 B3u                
  0.070   0.073   0.140   0.149   0.156   0.156   0.157   0.164
 12 Ag    6 B1g   4 B2g  11 B3u   9 B2u  13 Ag    5 B1u   7 B1g                
  0.168   0.170   0.188   0.190   0.202   0.208   0.227   0.231
  8 B1g  14 Ag   15 Ag    9 B1g  12 B3u  10 B2u  11 B2u  13 B3u                
  0.257   0.258   0.267   0.268   0.269   0.281   0.287   0.318
  5 B2g  14 B3u  15 B3u   3 B3g  12 B2u  16 Ag   10 B1g  17 Ag                 
  0.339   0.348   0.362   0.382   0.385   0.391   0.397   0.405
  6 B1u   3 Au    4 B3g  16 B3u  13 B2u  18 Ag   11 B1g   6 B2g                
  0.408   0.421   0.435   0.442   0.489   0.490   0.494   0.499
  7 B1u  19 Ag   20 Ag   12 B1g  17 B3u   4 Au    8 B1u  14 B2u                
  0.501   0.515   0.517   0.520   0.527   0.557   0.576   0.583
 18 B3u  21 Ag   13 B1g  19 B3u  15 B2u   7 B2g   5 B3g  16 B2u                
  0.606   0.609   0.613   0.621   0.658   0.664   0.666   0.709
 22 Ag   20 B3u  14 B1g   9 B1u  15 B1g  21 B3u  17 B2u  23 Ag                 
  0.710   0.714   0.726   0.729   0.738   0.757   0.774   0.774
  8 B2g  16 B1g   6 B3g  10 B1u   5 Au    9 B2g   7 B3g  17 B1g                
  0.775   0.777   0.798   0.803   0.878   0.900   0.903   0.911
 24 Ag   10 B2g  25 Ag   22 B3u  23 B3u   6 Au   18 B2u  24 B3u                
  0.954   0.966   1.007   1.140   1.147   1.187   1.272   1.286
 11 B1u   7 Au   18 B1g  25 B3u  19 B2u   8 B3g  11 B2g  20 B2u                
  1.307   1.322   1.331   1.333   1.339   1.391   1.399   1.410
 26 B3u  21 B2u  12 B1u  19 B1g  26 Ag   27 B3u  27 Ag   28 B3u                
  1.424   1.426   1.434   1.442   1.466   1.483   1.487   1.505
 28 Ag   22 B2u  20 B1g  29 Ag    8 Au   12 B2g  13 B1u   9 B3g                
  1.571   1.576   1.582   1.611   1.673   1.690   1.695   1.722
 23 B2u  30 Ag   21 B1g  31 Ag   14 B1u   9 Au   32 Ag   29 B3u                
  1.734   1.741   1.757   1.763   1.777   1.790   1.879   1.891
 22 B1g  24 B2u  23 B1g  33 Ag   13 B2g  30 B3u  15 B1u  31 B3u                
  1.902   1.906   1.918   1.964   1.975   1.995   2.010   2.052
 25 B2u  14 B2g  10 B3g  11 B3g  15 B2g  34 Ag   24 B1g  26 B2u                
  2.061   2.085   2.147   2.160   2.162   2.177   2.238   2.238
 32 B3u  27 B2u  16 B1u  25 B1g  10 Au   33 B3u  35 Ag   26 B1g                
  2.386   2.458   2.572   2.577   2.586   2.587   2.595   2.756
 11 Au   16 B2g  34 B3u  36 Ag   27 B1g  28 B2u  37 Ag   35 B3u                
  2.766   2.774   2.920   2.921   2.935   2.936   3.171   3.337
 29 B2u  36 B3u  38 Ag   28 B1g  30 B2u  37 B3u  29 B1g  39 Ag                 
  3.348   3.665   4.601
 30 B1g  38 B3u  39 B3u                                                        

 Beta MOs, Unrestricted
 -- Occupied --                  
-11.494 -11.494 -11.469 -11.469 -11.468 -11.468  -1.377  -1.243
  1 B3u   1 Ag    1 B2u   2 Ag    1 B1g   2 B3u   3 Ag    2 B2u                
 -1.229  -1.049  -1.044  -0.933  -0.859  -0.852  -0.816  -0.806
  3 B3u   2 B1g   4 Ag    5 Ag    4 B3u   3 B2u   5 B3u   4 B2u                
 -0.719  -0.715  -0.667  -0.559
  6 Ag    3 B1g   1 B1u   1 B3g                                                
 -- Virtual --                   
 -0.254  -0.086  -0.069  -0.066  -0.062  -0.048  -0.045  -0.045
  1 B2g   7 Ag    6 B3u   5 B2u   1 Au    2 B1u   8 Ag    4 B1g                
 -0.024  -0.016  -0.014   0.004   0.006   0.015   0.027   0.028
  3 B1u   7 B3u   9 Ag    2 B3g   2 B2g   6 B2u   8 B3u   7 B2u                
  0.029   0.033   0.036   0.039   0.043   0.059   0.064   0.067
 10 Ag    5 B1g  11 Ag    9 B3u   8 B2u   2 Au    4 B1u   3 B2g                
  0.071   0.071   0.073   0.155   0.157   0.160   0.162   0.164
 10 B3u  12 Ag    6 B1g   9 B2u  11 B3u  13 Ag    5 B1u   7 B1g                
  0.169   0.170   0.170   0.191   0.196   0.204   0.208   0.227
  8 B1g   4 B2g  14 Ag    9 B1g  15 Ag   12 B3u  10 B2u  11 B2u                
  0.234   0.262   0.266   0.267   0.268   0.269   0.283   0.287
 13 B3u  14 B3u   5 B2g   3 B3g  15 B3u  12 B2u  16 Ag   10 B1g                
  0.324   0.346   0.350   0.373   0.387   0.392   0.400   0.405
 17 Ag    6 B1u   3 Au    4 B3g  13 B2u  16 B3u  11 B1g  18 Ag                 
  0.414   0.415   0.422   0.437   0.442   0.496   0.498   0.499
  6 B2g   7 B1u  19 Ag   20 Ag   12 B1g   4 Au   14 B2u  17 B3u                
  0.506   0.511   0.519   0.520   0.523   0.527   0.575   0.578
  8 B1u  18 B3u  21 Ag   13 B1g  19 B3u  15 B2u   5 B3g   7 B2g                
  0.585   0.609   0.611   0.613   0.640   0.660   0.667   0.669
 16 B2u  22 Ag   20 B3u  14 B1g   9 B1u  15 B1g  21 B3u  17 B2u                
  0.711   0.716   0.727   0.729   0.739   0.745   0.775   0.776
 23 Ag   16 B1g   6 B3g   8 B2g  10 B1u   5 Au    7 B3g  17 B1g                
  0.780   0.780   0.782   0.800   0.810   0.881   0.901   0.905
  9 B2g  24 Ag   10 B2g  25 Ag   22 B3u  23 B3u   6 Au   18 B2u                
  0.912   0.971   0.973   1.008   1.143   1.148   1.206   1.279
 24 B3u   7 Au   11 B1u  18 B1g  25 B3u  19 B2u   8 B3g  11 B2g                
  1.292   1.318   1.321   1.337   1.340   1.340   1.393   1.404
 20 B2u  26 B3u  21 B2u  19 B1g  12 B1u  26 Ag   27 B3u  27 Ag                 
  1.420   1.426   1.436   1.439   1.442   1.491   1.492   1.502
 28 B3u  22 B2u  28 Ag   20 B1g  29 Ag    8 Au   13 B1u  12 B2g                
  1.505   1.574   1.580   1.586   1.622   1.685   1.692   1.697
  9 B3g  23 B2u  30 Ag   21 B1g  31 Ag   14 B1u   9 Au   32 Ag                 
  1.736   1.739   1.741   1.759   1.765   1.783   1.791   1.884
 22 B1g  29 B3u  24 B2u  23 B1g  33 Ag   13 B2g  30 B3u  15 B1u                
  1.894   1.902   1.913   1.922   1.979   1.983   2.005   2.012
 31 B3u  25 B2u  14 B2g  10 B3g  11 B3g  15 B2g  34 Ag   24 B1g                
  2.053   2.062   2.087   2.156   2.160   2.165   2.183   2.240
 26 B2u  32 B3u  27 B2u  16 B1u  25 B1g  10 Au   33 B3u  26 B1g                
  2.240   2.397   2.464   2.579   2.580   2.587   2.587   2.596
 35 Ag   11 Au   16 B2g  34 B3u  36 Ag   27 B1g  28 B2u  37 Ag                 
  2.757   2.767   2.775   2.925   2.926   2.937   2.942   3.172
 35 B3u  29 B2u  36 B3u  28 B1g  38 Ag   30 B2u  37 B3u  29 B1g                
  3.343   3.349   3.667   4.605
 39 Ag   30 B1g  38 B3u  39 B3u                                                
 --------------------------------------------------------------

          Ground-State Mulliken Net Atomic Charges

     Atom                 Charge (a.u.)    Spin (a.u.)
  --------------------------------------------------------
      1 H                    -0.349323      -0.031486
      2 C                     0.410451       0.713013
      3 C                     0.585497      -0.083835
      4 H                    -0.366061      -0.006928
      5 C                     0.585497      -0.083835
      6 H                    -0.366061      -0.006928
      7 C                     0.410451       0.713013
      8 H                    -0.349323      -0.031486
      9 C                     0.585497      -0.083835
     10 H                    -0.366061      -0.006928
     11 C                     0.585497      -0.083835
     12 H                    -0.366061      -0.006928
  --------------------------------------------------------
  Sum of atomic charges =     1.000000
  Sum of spin   charges =     1.000000

 -----------------------------------------------------------------
                    Cartesian Multipole Moments
 -----------------------------------------------------------------
    Charge (ESU x 10^10)
                 4.8032
    Dipole Moment (Debye)
         X       0.0000      Y       0.0000      Z      -0.0000
       Tot       0.0000
    Quadrupole Moments (Debye-Ang)
        XX     -18.0979     XY       0.0000     YY     -22.1351
        XZ       0.0000     YZ      -0.0000     ZZ     -36.1922
    Octopole Moments (Debye-Ang^2)
       XXX       0.0000    XXY       0.0000    XYY       0.0000
       YYY       0.0000    XXZ      -0.0000    XYZ       0.0000
       YYZ      -0.0000    XZZ      -0.0000    YZZ       0.0000
       ZZZ      -0.0000
    Hexadecapole Moments (Debye-Ang^3)
      XXXX    -196.7537   XXXY       0.0000   XXYY     -69.6269
      XYYY       0.0000   YYYY    -213.3380   XXXZ      -0.0000
      XXYZ      -0.0000   XYYZ       0.0000   YYYZ      -0.0000
      XXZZ     -52.9118   XYZZ       0.0000   YYZZ     -57.6026
      XZZZ       0.0000   YZZZ      -0.0000   ZZZZ     -39.7581
 -----------------------------------------------------------------
Archival summary:
1\1\vpn-052-171.usc.edu\SP\ProcedureUnspecified\BasisUnspecified\66(1+,2)\SunSep918:12:172018SunSep918:12:172018\0\\#,ProcedureUnspecified,BasisUnspecified,\\1,2\C\H,1,1.08144\C,1,1.39359,2,120\H,3,1.08144,1,120,2,-0,0\C,3,1.39359,1,120,2,180,0\H,5,1.08144,3,120,1,-180,0\C,5,1.39359,3,120,1,-0,0\H,7,1.08144,5,120,3,180,0\C,7,1.39359,5,120,3,0,0\H,9,1.08144,7,120,5,180,0\C,9,1.39359,7,120,5,-0,0\H,11,1.08144,9,120,7,180,0\\HF=-230.435473\\@

 Total job time:  36806.67s(wall), 48342.28s(cpu) 
 Sun Sep  9 18:12:17 2018

        *************************************************************
        *                                                           *
        *  Thank you very much for using Q-Chem.  Have a nice day.  *
        *                                                           *
        *************************************************************


