vpn-052-080.usc.edu 128.125.52
Q-Chem Developer Version! Running on 128.125.52.*
                  Welcome to Q-Chem
     A Quantum Leap Into The Future Of Chemistry


 Q-Chem 5.1, Q-Chem, Inc., Pleasanton, CA (2018)

 Yihan Shao,  Zhengting Gan,  E. Epifanovsky,  A. T. B. Gilbert,  M. Wormit,  
 J. Kussmann,  A. W. Lange,  A. Behn,  Jia Deng,  Xintian Feng,  D. Ghosh,  
 M. Goldey,  P. R. Horn,  L. D. Jacobson,  I. Kaliman,  T. Kus,  A. Landau,  
 Jie Liu,  E. I. Proynov,  R. M. Richard,  R. P. Steele,  E. J. Sundstrom,  
 H. L. Woodcock III,  P. M. Zimmerman,  D. Zuev,  B. Albrecht,  E. Alguire,  
 S. A. Baeppler,  D. Barton,  Z. Benda,  Y. A. Bernard,  E. J. Berquist,  
 K. B. Bravaya,  H. Burton,  D. Casanova,  Chun-Min Chang,  Yunqing Chen,  
 A. Chien,  K. D. Closser,  M. P. Coons,  S. Coriani,  S. Dasgupta,  
 A. L. Dempwolff,  M. Diedenhofen,  Hainam Do,  R. G. Edgar,  Po-Tung Fang,  
 S. Faraji,  S. Fatehi,  Qingguo Feng,  K. D. Fenk,  J. Fosso-Tande,  
 Qinghui Ge,  A. Ghysels,  G. Gidofalvi,  J. Gomes,  J. Gonthier,  A. Gunina,  
 M. W. D. Hanson-Heine,  P. H. P. Harbach,  A. W. Hauser,  J. E. Herr,  
 E. G. Hohenstein,  Z. C. Holden,  Kerwin Hui,  T.-C. Jagau,  Hyunjun Ji,  
 B. Kaduk,  K. Khistyaev,  Jaehoon Kim,  P. Klunzinger,  K. Koh,  
 D. Kosenkov,  L. Koulias,  T. Kowalczyk,  C. M. Krauter,  A. Kunitsa,  
 Ka Un Lao,  A. Laurent,  K. V. Lawler,  Joonho Lee,  D. Lefrancois,  
 S. Lehtola,  D. S. Levine,  Yi-Pei Li,  You-Sheng Lin,  Fenglai Liu,  
 E. Livshits,  A. Luenser,  P. Manohar,  E. Mansoor,  S. F. Manzer,  
 Shan-Ping Mao,  Yuezhi Mao,  N. Mardirossian,  A. V. Marenich,  
 T. Markovich,  L. A. Martinez-Martinez,  S. A. Maurer,  N. J. Mayhall,  
 S. C. McKenzie,  J.-M. Mewes,  A. F. Morrison,  J. W. Mullinax,  K. Nanda,  
 T. S. Nguyen-Beck,  R. Olivares-Amaya,  J. A. Parkhill,  T. M. Perrine,  
 F. Plasser,  P. Pokhilko,  S. Prager,  A. Prociuk,  E. Ramos,  D. R. Rehn,  
 F. Rob,  M. Schneider,  N. Sergueev,  S. M. Sharada,  S. Sharma,  
 D. W. Small,  T. Stauch,  T. Stein,  Yu-Chuan Su,  A. J. W. Thom,  
 A. Tkatchenko,  T. Tsuchimochi,  N. M. Tubman,  L. Vogt,  M. L. Vidal,  
 O. Vydrov,  M. A. Watson,  J. Wenzel,  M. de Wergifosse,  T. A. Wesolowski,  
 A. White,  J. Witte,  A. Yamada,  Jun Yang,  K. Yao,  S. Yeganeh,  
 S. R. Yost,  Zhi-Qiang You,  A. Zech,  Igor Ying Zhang,  Xing Zhang,  
 Yan Zhao,  Ying Zhu,  B. R. Brooks,  G. K. L. Chan,  C. J. Cramer,  
 M. S. Gordon,  W. J. Hehre,  A. Klamt,  M. W. Schmidt,  C. D. Sherrill,  
 D. G. Truhlar,  A. Aspuru-Guzik,  R. Baer,  A. T. Bell,  N. A. Besley,  
 Jeng-Da Chai,  R. A. DiStasio Jr.,  A. Dreuw,  B. D. Dunietz,  
 T. R. Furlani,  Chao-Ping Hsu,  Yousung Jung,  Jing Kong,  D. S. Lambrecht,  
 WanZhen Liang,  C. Ochsenfeld,  V. A. Rassolov,  L. V. Slipchenko,  
 J. E. Subotnik,  T. Van Voorhis,  J. M. Herbert,  A. I. Krylov,  
 P. M. W. Gill,  M. Head-Gordon

 Contributors to earlier versions of Q-Chem not listed above: 
 R. D. Adamson,  B. Austin,  J. Baker,  G. J. O. Beran,  K. Brandhorst,  
 S. T. Brown,  E. F. C. Byrd,  A. K. Chakraborty,  C.-L. Cheng,  
 Siu Hung Chien,  D. M. Chipman,  D. L. Crittenden,  H. Dachsel,  
 R. J. Doerksen,  A. D. Dutoi,  L. Fusti-Molnar,  W. A. Goddard III,  
 A. Golubeva-Zadorozhnaya,  S. R. Gwaltney,  G. Hawkins,  A. Heyden,  
 S. Hirata,  G. Kedziora,  F. J. Keil,  C. Kelley,  Jihan Kim,  R. A. King,  
 R. Z. Khaliullin,  P. P. Korambath,  W. Kurlancheek,  A. M. Lee,  M. S. Lee,  
 S. V. Levchenko,  Ching Yeh Lin,  D. Liotard,  R. C. Lochan,  I. Lotan,  
 P. E. Maslen,  N. Nair,  D. P. O'Neill,  D. Neuhauser,  E. Neuscamman,  
 C. M. Oana,  R. Olson,  B. Peters,  R. Peverati,  P. A. Pieniazek,  
 Y. M. Rhee,  J. Ritchie,  M. A. Rohrdanz,  E. Rosta,  N. J. Russ,  
 H. F. Schaefer III,  N. E. Schultz,  N. Shenvi,  A. C. Simmonett,  A. Sodt,  
 D. Stuck,  K. S. Thanthiriwatte,  V. Vanovschi,  Tao Wang,  A. Warshel,  
 C. F. Williams,  Q. Wu,  X. Xu,  W. Zhang

 Please cite Q-Chem as follows:
 Y. Shao et al., Mol. Phys. 113, 184-215 (2015)
 DOI: 10.1080/00268976.2014.952696

 Q-Chem 5.1.0 for Mac (Intel) OS X

 Parts of Q-Chem use Armadillo 8.300.2 (Tropical Shenanigans).
 http://arma.sourceforge.net/

 Q-Chem begins on Sat Sep 29 07:27:51 2018  

vpn-052-080.usc.edu
Host: 0

     Scratch files written to /scratch/qchem38588//
Processing $rem in /Users/annakrylov/.qchemrc.
CC_MEMORY  4000
Core orbitals will be frozen

Checking the input file for inconsistencies... 	...done.

--------------------------------------------------------------
User input:
--------------------------------------------------------------
$comment
RI-MP2/cc-pVTZ optimized geometry. 
6-311(2+,+)G** with uncontacted core
$end

$molecule
0 1
    H         2.4750347531    0.0000000000    0.0000000000
    C         1.3935929418    0.0000000000    0.0000000000
    C         0.6967964709    1.2068868901    0.0000000000
    H         1.2375173766    2.1434429715    0.0000000000
    C        -0.6967964709    1.2068868901    0.0000000000
    H        -1.2375173766    2.1434429715    0.0000000000
    C        -1.3935929418    0.0000000000    0.0000000000
    H        -2.4750347531    0.0000000000    0.0000000000
    C        -0.6967964709   -1.2068868901    0.0000000000
    H        -1.2375173766   -2.1434429715    0.0000000000
    C         0.6967964709   -1.2068868901    0.0000000000
    H         1.2375173766   -2.1434429715    0.0000000000
$end

$rem
   JOB_TYPE  =  SP
   BASIS  =  general
   METHOD  =  EOM-CCSD
   CVS_EE_STATES = [0,0,0,0,0,5,5,5]
!   CC_MEMORY = 80000
   cc_trans_prop = 1
!   PRINT_GENERAL_BASIS = true
$end

$basis
H    0
S    3    1.000000
   3.38650000E+01    2.54938000E-02 
   5.09479000E+00    1.90373000E-01 
   1.15879000E+00    8.52161000E-01 
S    1    1.000000
   3.25840000E-01    1.00000000E+00 
S    1    1.000000
   1.02741000E-01    1.00000000E+00 
S    1    1.000000
   3.60000000E-02    1.00000000E+00 
P    1    1.000000
   7.50000000E-01    1.00000000E+00 
****
C    0
S    1    1.000000
   4.56324000E+03    1.96665000E-03 
S    1    1.000000
   6.82024000E+02    1.52306000E-02
S    1    1.000000   
   1.54973000E+02    7.61269000E-02 
S    1    1.000000
   4.44553000E+01    2.60801000E-01
S    1    1.000000   
   1.30290000E+01    6.16462000E-01 
S    1    1.000000
   1.82773000E+00    2.21006000E-01 
SP   3    1.000000
   2.09642000E+01    1.14660000E-01   4.02487000E-02 
   4.80331000E+00    9.19999000E-01   2.37594000E-01 
   1.45933000E+00   -3.03068000E-03   8.15854000E-01 
SP   1    1.000000
   4.83456000E-01    1.00000000E+00   1.00000000E+00 
SP   1    1.000000
   1.45585000E-01    1.00000000E+00   1.00000000E+00 
SP   1    1.000000
   4.38000000E-02    1.00000000E+00   1.00000000E+00 
SP   1    1.000000
   1.31927711E-02    1.00000000E+00   1.00000000E+00 
D    1    1.000000
   6.26000000E-01    1.00000000E+00
****
$end
--------------------------------------------------------------
 ----------------------------------------------------------------
             Standard Nuclear Orientation (Angstroms)
    I     Atom           X                Y                Z
 ----------------------------------------------------------------
    1      H       2.4750347531     0.0000000000    -0.0000000000
    2      C       1.3935929418     0.0000000000    -0.0000000000
    3      C       0.6967964709     1.2068868901     0.0000000000
    4      H       1.2375173766     2.1434429715     0.0000000000
    5      C      -0.6967964709     1.2068868901     0.0000000000
    6      H      -1.2375173766     2.1434429715     0.0000000000
    7      C      -1.3935929418     0.0000000000     0.0000000000
    8      H      -2.4750347531     0.0000000000     0.0000000000
    9      C      -0.6967964709    -1.2068868901    -0.0000000000
   10      H      -1.2375173766    -2.1434429715    -0.0000000000
   11      C       0.6967964709    -1.2068868901    -0.0000000000
   12      H       1.2375173766    -2.1434429715    -0.0000000000
 ----------------------------------------------------------------
 Molecular Point Group                 D2h   NOp =  8
 Largest Abelian Subgroup              D2h   NOp =  8
 Nuclear Repulsion Energy =   203.7187449024 hartrees
 There are       21 alpha and       21 beta electrons

 Q-Chem warning in module forms1/BasisType.C, line 1685:

 Setting pure/cartesian flag to 2111 for general basis


 Requested basis set is non-standard
 There are 102 shells and 228 basis functions
MEM_TOTAL is adjusted to CC_MEMORY + MEM_STATIC!
 Total memory of 4192MB is distributed as follows: 
   QALLOC including MEM_STATIC uses 192MB
   MEM_STATIC is set to 192MB
   CCMAN JOB total memory use is  4000MB
 Warning: actual memory use might exceed 4192MB

 Total QAlloc Memory Limit    192 MB
 Mega-Array Size       188 MB
 MEM_STATIC part       192 MB

                       Distance Matrix (Angstroms)
             H (  1)   C (  2)   C (  3)   H (  4)   C (  5)   H (  6)
   C (  2)  1.081442
   C (  3)  2.149118  1.393593
   H (  4)  2.475035  2.149118  1.081442
   C (  5)  3.393684  2.413774  1.393593  2.149118
   H (  6)  4.286886  3.393684  2.149118  2.475035  1.081442
   C (  7)  3.868628  2.787186  2.413774  3.393684  1.393593  2.149118
   H (  8)  4.950070  3.868628  3.393684  4.286886  2.149118  2.475035
   C (  9)  3.393684  2.413774  2.787186  3.868628  2.413774  3.393684
   H ( 10)  4.286886  3.393684  3.868628  4.950070  3.393684  4.286886
   C ( 11)  2.149118  1.393593  2.413774  3.393684  2.787186  3.868628
   H ( 12)  2.475035  2.149118  3.393684  4.286886  3.868628  4.950070
             C (  7)   H (  8)   C (  9)   H ( 10)   C ( 11)
   H (  8)  1.081442
   C (  9)  1.393593  2.149118
   H ( 10)  2.149118  2.475035  1.081442
   C ( 11)  2.413774  3.393684  1.393593  2.149118
   H ( 12)  3.393684  4.286886  2.149118  2.475035  1.081442

 A cutoff of  1.0D-14 yielded   4632 shell pairs
 There are     25539 function pairs (     26958 Cartesian)
 Smallest overlap matrix eigenvalue = 9.20E-09
 Linear dependence detected in AO basis
 Number of orthogonalized atomic orbitals = 221
 Maximum deviation from orthogonality = 6.018E-11

 Scale SEOQF with 1.000000e-01/1.000000e-01/1.000000e-01

 Standard Electronic Orientation quadrupole field applied
 Nucleus-field energy     =     0.0000000057 hartrees
 Guess MOs from core Hamiltonian diagonalization

 -----------------------------------------------------------------------
  General SCF calculation program by
  Eric Jon Sundstrom, Paul Horn, Yuezhi Mao, Dmitri Zuev, Alec White,
  David Stuck, Shaama M.S., Shane Yost, Joonho Lee, David Small,
  Daniel Levine, Susi Lehtola, Hugh Burton, Evgeny Epifanovsky
 -----------------------------------------------------------------------
 Hartree-Fock
 A restricted SCF calculation will be
 performed using DIIS
 SCF converges when DIIS error is below 1.0e-08
 ---------------------------------------
  Cycle       Energy         DIIS error
 ---------------------------------------
    1    -181.4699842911      1.05e-01  
    2    -151.8324204905      1.73e-01  
    3    -171.8766867423      1.42e-01  
    4    -179.9775522246      1.22e-01  
    5    -193.6749875070      9.88e-02  
    6    -196.0449007873      8.61e-02  
    7    -208.4560183438      7.26e-02  
    8    -213.7665050906      6.22e-02  
    9    -214.6724860655      5.34e-02  
   10    -220.5080606979      3.55e-02  
   11    -226.4113303291      2.04e-02  
   12    -229.0840101695      7.91e-03  
   13    -230.5936852435      4.44e-03  
   14    -230.7485889965      7.56e-04  
   15    -230.7559213108      2.74e-04  
   16    -230.7567090714      9.53e-05  
   17    -230.7568434670      1.55e-05  
   18    -230.7568471780      3.97e-06  
   19    -230.7568474159      5.54e-07  
   20    -230.7568474192      8.98e-08  
   21    -230.7568474200      1.40e-08  
   22    -230.7568474200      2.46e-09  Convergence criterion met
 ---------------------------------------
 SCF time:   CPU 29.80s  wall 30.00s 
 SCF   energy in the final basis set =     -230.7568474200


 ------------------------------------------------------------------------------

   CCMAN2: suite of methods based on coupled cluster
           and equation of motion theories.

   Components:
   * libvmm-1.3-trunk
     by Evgeny Epifanovsky, Ilya Kaliman.
   * libtensor-2.5-trunk
     by Evgeny Epifanovsky, Michael Wormit, Dmitry Zuev, Sam Manzer, 
        Ilya Kaliman.
   * libcc-2.5-trunk
     by Evgeny Epifanovsky, Arik Landau, Tomasz Kus, Kirill Khistyaev, 
        Dmitry Zuev, Prashant Manohar, Xintian Feng, Anna Krylov, 
        Matthew Goldey, Alec White, Thomas Jagau, Kaushik Nanda, 
        Anastasia Gunina, Alexander Kunitsa, Joonho Lee.

   CCMAN original authors:
   Anna I. Krylov, C. David Sherrill, Steven R. Gwaltney,
   Edward F. C. Byrd (2000)
   Sergey V. Levchenko, Lyudmila V. Slipchenko, Tao Wang,
   Ana-Maria C. Cristian (2003)
   Piotr A. Pieniazek, C. Melania Oana, Evgeny Epifanovsky (2007)
   Prashant Manohar (2009)

 ------------------------------------------------------------------------------


 Calculation will run on 1 core with 4000MB of RAM.


 Alpha MOs, Restricted
 -- Occupied --                  
-11.239 -11.239 -11.239 -11.237 -11.237 -11.237  -1.153  -1.017
  1 Ag    1 B3u   1 B2u   2 Ag    1 B1g   2 B3u   3 Ag    3 B3u                
 -1.017  -0.826  -0.826  -0.712  -0.645  -0.621  -0.590  -0.590
  2 B2u   4 Ag    2 B1g   5 Ag    4 B3u   3 B2u   5 B3u   4 B2u                
 -0.502  -0.496  -0.496  -0.337  -0.337
  1 B1u   6 Ag    3 B1g   1 B2g   1 B3g                                        
 -- Virtual --                   
  0.017   0.022   0.022   0.033   0.033   0.034   0.044   0.044
  7 Ag    6 B3u   5 B2u   8 Ag    4 B1g   2 B1u   2 B2g   2 B3g                
  0.049   0.054   0.056   0.056   0.057   0.067   0.067   0.069
  7 B3u   6 B2u   3 B1u   1 Au    9 Ag    8 B3u   7 B2u   3 B2g                
  0.070   0.070   0.084   0.093   0.093   0.103   0.103   0.114
 10 Ag    5 B1g  11 Ag    9 B3u   8 B2u  12 Ag    6 B1g   4 B1u                
  0.114   0.131   0.172   0.186   0.186   0.186   0.195   0.204
  2 Au   10 B3u   5 B1u   4 B2g   3 B3g   9 B2u  13 Ag   14 Ag                 
  0.204   0.225   0.225   0.225   0.237   0.239   0.239   0.247
  7 B1g  11 B3u  10 B2u   5 B2g  15 Ag    6 B1u   3 Au   16 Ag                 
  0.247   0.250   0.250   0.255   0.255   0.281   0.289   0.289
  8 B1g  12 B3u  11 B2u  13 B3u  12 B2u  14 B3u  17 Ag    9 B1g                
  0.303   0.338   0.374   0.413   0.426   0.426   0.454   0.454
 10 B1g  18 Ag    6 B2g  15 B3u  16 B3u  13 B2u  19 Ag   11 B1g                
  0.515   0.515   0.522   0.522   0.621   0.623   0.719   0.739
 20 Ag   12 B1g  17 B3u  14 B2u  21 Ag   15 B2u  18 B3u  19 B3u                
  0.739   0.751   0.752   0.758   0.758   0.785   0.785   0.822
 16 B2u   7 B1u  13 B1g  22 Ag   14 B1g   7 B2g   4 B3g  23 Ag                 
  0.836   0.836   0.891   0.896   0.939   0.939   0.960   0.960
  8 B1u   4 Au   20 B3u   8 B2g  21 B3u  17 B2u  24 Ag   15 B1g                
  0.976   1.016   1.016   1.063   1.063   1.108   1.110   1.110
 25 Ag   22 B3u  18 B2u  26 Ag   16 B1g  23 B3u  24 B3u  19 B2u                
  1.131   1.170   1.204   1.204   1.250   1.324   1.324   1.392
 17 B1g   9 B1u  27 Ag   18 B1g   5 B3g   9 B2g   6 B3g  10 B1u                
  1.392   1.475   1.561   1.720   1.789   1.794   1.794   1.829
  5 Au   25 B3u  28 Ag   20 B2u  29 Ag   26 B3u  21 B2u  10 B2g                
  1.848   1.848   1.910   1.910   1.933   1.933   1.993   2.056
 11 B1u   6 Au   19 B1g  30 Ag   22 B2u  27 B3u  12 B1u  11 B2g                
  2.056   2.109   2.109   2.132   2.239   2.239   2.239   2.253
  7 B3g  31 Ag   20 B1g  23 B2u  21 B1g   8 B3g  12 B2g  28 B3u                
  2.253   2.301   2.350   2.350   2.381   2.381   2.642   2.664
 24 B2u  29 B3u  22 B1g  32 Ag   13 B1u   7 Au   13 B2g   8 Au                 
  2.749   2.749   2.768   2.831   2.831   2.941   2.941   2.977
 33 Ag   23 B1g  34 Ag   30 B3u  25 B2u  26 B2u  31 B3u  35 Ag                 
  2.980   3.031   3.031   3.035   3.044   3.044   3.082   3.208
 32 B3u  33 B3u  27 B2u  34 B3u  36 Ag   24 B1g  14 B1u  14 B2g                
  3.208   3.268   3.302   3.302   3.339   3.339   3.487   3.557
  9 B3g  25 B1g  15 B1u   9 Au   37 Ag   26 B1g  15 B2g  28 B2u                
  3.775   3.775   3.912   3.912   3.938   4.074   4.397   4.397
 27 B1g  38 Ag   35 B3u  29 B2u  39 Ag   36 B3u  40 Ag   28 B1g                
  4.485   4.533   4.533   5.134   5.279   5.461   5.461   5.789
 37 B3u  38 B3u  30 B2u  41 Ag   29 B1g  39 B3u  31 B2u  42 Ag                 
  5.789   6.211  20.654  20.721  20.721  20.862  20.862  21.155
 30 B1g  40 B3u  43 Ag   41 B3u  32 B2u  44 Ag   31 B1g  42 B3u                
 80.225  80.296  80.296  80.416  80.416  80.640 322.068 322.132
 45 Ag   43 B3u  33 B2u  46 Ag   32 B1g  44 B3u  47 Ag   45 B3u                
322.132 322.234 322.234 322.4161431.6381431.6941431.6941431.781
 34 B2u  48 Ag   33 B1g  46 B3u  49 Ag   47 B3u  35 B2u  50 Ag                 
*******1431.9338749.8788749.9238749.9238749.9948749.9948750.117
 34 B1g  48 B3u  51 Ag   49 B3u  36 B2u  52 Ag   35 B1g  50 B3u                

 Beta MOs, Restricted
 -- Occupied --                  
-11.239 -11.239 -11.239 -11.237 -11.237 -11.237  -1.153  -1.017
  1 Ag    1 B3u   1 B2u   2 Ag    1 B1g   2 B3u   3 Ag    3 B3u                
 -1.017  -0.826  -0.826  -0.712  -0.645  -0.621  -0.590  -0.590
  2 B2u   4 Ag    2 B1g   5 Ag    4 B3u   3 B2u   5 B3u   4 B2u                
 -0.502  -0.496  -0.496  -0.337  -0.337
  1 B1u   6 Ag    3 B1g   1 B2g   1 B3g                                        
 -- Virtual --                   
  0.017   0.022   0.022   0.033   0.033   0.034   0.044   0.044
  7 Ag    6 B3u   5 B2u   8 Ag    4 B1g   2 B1u   2 B2g   2 B3g                
  0.049   0.054   0.056   0.056   0.057   0.067   0.067   0.069
  7 B3u   6 B2u   3 B1u   1 Au    9 Ag    8 B3u   7 B2u   3 B2g                
  0.070   0.070   0.084   0.093   0.093   0.103   0.103   0.114
 10 Ag    5 B1g  11 Ag    9 B3u   8 B2u  12 Ag    6 B1g   4 B1u                
  0.114   0.131   0.172   0.186   0.186   0.186   0.195   0.204
  2 Au   10 B3u   5 B1u   4 B2g   3 B3g   9 B2u  13 Ag   14 Ag                 
  0.204   0.225   0.225   0.225   0.237   0.239   0.239   0.247
  7 B1g  11 B3u  10 B2u   5 B2g  15 Ag    6 B1u   3 Au   16 Ag                 
  0.247   0.250   0.250   0.255   0.255   0.281   0.289   0.289
  8 B1g  12 B3u  11 B2u  13 B3u  12 B2u  14 B3u  17 Ag    9 B1g                
  0.303   0.338   0.374   0.413   0.426   0.426   0.454   0.454
 10 B1g  18 Ag    6 B2g  15 B3u  16 B3u  13 B2u  19 Ag   11 B1g                
  0.515   0.515   0.522   0.522   0.621   0.623   0.719   0.739
 20 Ag   12 B1g  17 B3u  14 B2u  21 Ag   15 B2u  18 B3u  19 B3u                
  0.739   0.751   0.752   0.758   0.758   0.785   0.785   0.822
 16 B2u   7 B1u  13 B1g  22 Ag   14 B1g   7 B2g   4 B3g  23 Ag                 
  0.836   0.836   0.891   0.896   0.939   0.939   0.960   0.960
  8 B1u   4 Au   20 B3u   8 B2g  21 B3u  17 B2u  24 Ag   15 B1g                
  0.976   1.016   1.016   1.063   1.063   1.108   1.110   1.110
 25 Ag   22 B3u  18 B2u  26 Ag   16 B1g  23 B3u  24 B3u  19 B2u                
  1.131   1.170   1.204   1.204   1.250   1.324   1.324   1.392
 17 B1g   9 B1u  27 Ag   18 B1g   5 B3g   9 B2g   6 B3g  10 B1u                
  1.392   1.475   1.561   1.720   1.789   1.794   1.794   1.829
  5 Au   25 B3u  28 Ag   20 B2u  29 Ag   26 B3u  21 B2u  10 B2g                
  1.848   1.848   1.910   1.910   1.933   1.933   1.993   2.056
 11 B1u   6 Au   19 B1g  30 Ag   22 B2u  27 B3u  12 B1u  11 B2g                
  2.056   2.109   2.109   2.132   2.239   2.239   2.239   2.253
  7 B3g  31 Ag   20 B1g  23 B2u  21 B1g   8 B3g  12 B2g  28 B3u                
  2.253   2.301   2.350   2.350   2.381   2.381   2.642   2.664
 24 B2u  29 B3u  22 B1g  32 Ag   13 B1u   7 Au   13 B2g   8 Au                 
  2.749   2.749   2.768   2.831   2.831   2.941   2.941   2.977
 33 Ag   23 B1g  34 Ag   30 B3u  25 B2u  26 B2u  31 B3u  35 Ag                 
  2.980   3.031   3.031   3.035   3.044   3.044   3.082   3.208
 32 B3u  33 B3u  27 B2u  34 B3u  36 Ag   24 B1g  14 B1u  14 B2g                
  3.208   3.268   3.302   3.302   3.339   3.339   3.487   3.557
  9 B3g  25 B1g  15 B1u   9 Au   37 Ag   26 B1g  15 B2g  28 B2u                
  3.775   3.775   3.912   3.912   3.938   4.074   4.397   4.397
 27 B1g  38 Ag   35 B3u  29 B2u  39 Ag   36 B3u  40 Ag   28 B1g                
  4.485   4.533   4.533   5.134   5.279   5.461   5.461   5.789
 37 B3u  38 B3u  30 B2u  41 Ag   29 B1g  39 B3u  31 B2u  42 Ag                 
  5.789   6.211  20.654  20.721  20.721  20.862  20.862  21.155
 30 B1g  40 B3u  43 Ag   41 B3u  32 B2u  44 Ag   31 B1g  42 B3u                
 80.225  80.296  80.296  80.416  80.416  80.640 322.068 322.132
 45 Ag   43 B3u  33 B2u  46 Ag   32 B1g  44 B3u  47 Ag   45 B3u                
322.132 322.234 322.234 322.4161431.6381431.6941431.6941431.781
 34 B2u  48 Ag   33 B1g  46 B3u  49 Ag   47 B3u  35 B2u  50 Ag                 
*******1431.9338749.8788749.9238749.9238749.9948749.9948750.117
 34 B1g  48 B3u  51 Ag   49 B3u  36 B2u  52 Ag   35 B1g  50 B3u                

 Occupation and symmetry of molecular orbitals

 Point group: D2h (8 irreducible representations).

                           Ag   B1g  B2g  B3g  Au   B1u  B2u  B3u   All 
 ------------------------------------------------------------------------
 All molecular orbitals:
  - Alpha                  52   35   15   9    9    15   36   50    221 
  - Beta                   52   35   15   9    9    15   36   50    221 
 ------------------------------------------------------------------------
 Alpha orbitals:
  - Frozen occupied        2    1    0    0    0    0    1    2     6   
  - Active occupied        4    2    1    1    0    1    3    3     15  
  - Active virtual         46   32   14   8    9    14   32   45    200 
  - Frozen virtual         0    0    0    0    0    0    0    0     0   
 ------------------------------------------------------------------------
 Beta orbitals:
  - Frozen occupied        2    1    0    0    0    0    1    2     6   
  - Active occupied        4    2    1    1    0    1    3    3     15  
  - Active virtual         46   32   14   8    9    14   32   45    200 
  - Frozen virtual         0    0    0    0    0    0    0    0     0   
 ------------------------------------------------------------------------

 Import integrals:   CPU 0.00 s  wall 0.00 s

 Import integrals:   CPU 138.96 s  wall 116.71 s

 MP2 amplitudes:   CPU 10.22 s  wall 10.30 s

           CCSD T amplitudes will be solved using DIIS.

           Start     Size      MaxIter   EConv     TConv     
           3         7         100       1.00e-06  1.00e-04  
 ------------------------------------------------------------------------------
           Energy (a.u.)   Ediff      Tdiff       Comment
 ------------------------------------------------------------------------------
          -231.59168050                           
     1    -231.59429821   2.62e-03   9.14e-01     
     2    -231.62000322   2.57e-02   1.24e-01     
     3    -231.62080523   8.02e-04   4.27e-02     
     4    -231.62331989   2.51e-03   1.33e-02     Switched to DIIS steps.
     5    -231.62422062   9.01e-04   1.12e-02     
     6    -231.62422924   8.61e-06   2.17e-03     
     7    -231.62422005   9.19e-06   6.74e-04     
     8    -231.62421970   3.45e-07   1.55e-04     
     9    -231.62421955   1.57e-07   3.98e-05     
 ------------------------------------------------------------------------------
          -231.62421955                           CCSD T converged.

 SCF energy                 = -230.75684742
 MP2 energy                 = -231.59168050
 CCSD correlation energy     =   -0.86737213
 CCSD total energy           = -231.62421955

 CCSD  T1^2 = 0.0065  T2^2 = 0.3405  Leading amplitudes:

 Amplitude    Orbitals with energies
 -0.0217       1 (B2g) A                 ->    7 (B2g) A                  
              -0.3371                          0.7850                     
 -0.0217       1 (B2g) B                 ->    7 (B2g) B                  
              -0.3371                          0.7850                     
  0.0217       1 (B3g) A                 ->    4 (B3g) A                  
              -0.3371                          0.7850                     
  0.0217       1 (B3g) B                 ->    4 (B3g) B                  
              -0.3371                          0.7850                     

 Amplitude    Orbitals with energies
 -0.0672       1 (B3g) A     1 (B3g) B   ->    2 (Au) A      2 (Au) B     
              -0.3371       -0.3371            0.1142        0.1142       
  0.0672       1 (B3g) A     1 (B3g) B   ->    2 (Au) B      2 (Au) A     
              -0.3371       -0.3371            0.1142        0.1142       
  0.0672       1 (B3g) B     1 (B3g) A   ->    2 (Au) A      2 (Au) B     
              -0.3371       -0.3371            0.1142        0.1142       
 -0.0672       1 (B3g) B     1 (B3g) A   ->    2 (Au) B      2 (Au) A     
              -0.3371       -0.3371            0.1142        0.1142       
 -0.0672       1 (B2g) A     1 (B2g) B   ->    4 (B1u) A     4 (B1u) B    
              -0.3371       -0.3371            0.1142        0.1142       
  0.0672       1 (B2g) A     1 (B2g) B   ->    4 (B1u) B     4 (B1u) A    
              -0.3371       -0.3371            0.1142        0.1142       
  0.0672       1 (B2g) B     1 (B2g) A   ->    4 (B1u) A     4 (B1u) B    
              -0.3371       -0.3371            0.1142        0.1142       
 -0.0672       1 (B2g) B     1 (B2g) A   ->    4 (B1u) B     4 (B1u) A    
              -0.3371       -0.3371            0.1142        0.1142       

 Computing CCSD intermediates for later calculations
 Finished.

           CCSD Lambda amplitudes will be solved using DIIS.
           Start     Size      MaxIter   EConv     LConv     
           3         7         100       1.00e-06  1.00e-04  
 ------------------------------------------------------------------------------
            Enorm      Ldiff       Comment
 ------------------------------------------------------------------------------
     1     5.34e-02   4.37e-02     
     2     8.85e-03   5.93e-04     
     3     3.02e-03   1.80e-03     
     4     1.12e-03   2.47e-04     Switched to DIIS steps.
     5     3.20e-04   3.08e-04     
     6     1.00e-04   6.30e-05     
     7     3.17e-05   1.73e-05     
     8     8.54e-06   4.74e-06     
     9     2.67e-06   8.93e-07     
    10     9.05e-07   2.19e-07     
 ------------------------------------------------------------------------------
                                   CCSD Lambda converged.

 CCSD calculation:   CPU 502.89 s  wall 474.66 s

        Solving for CVS-EOMEE-CCSD B1u singlet states.

        CVS-EOMEE-CCSD/MP2 right amplitudes will be solved using Davidson.
        Amplitudes will be solved using standard  algorithm.
     Hard-coded thresholds: 
     LinDepThresh=1.00e-15  NormThresh=1.00e-06  ReorthogonThresh=1.00e-02

      Roots     MaxVec    MaxIter   Precond   Conv      Shift    
      5         120       60        1         1.00e-05  0.00e+00  
 ------------------------------------------------------------------------------
      Iter ConvRoots NVecs ResNorm Current eigenvalues (eV)
 ------------------------------------------------------------------------------
      0    0      5     1.94e+00   303.5508   303.5968   304.2672   304.3382   304.3589   
      1    0      10    4.40e+00   300.7404   300.7911   301.4430   301.5127   301.5333   
      2    0      15    9.03e-02   289.6553   289.7141   290.2995   290.3622   290.3736   
      3    0      20    7.25e-03   289.0768   289.1335   289.7330   289.7918   289.8002   
      4    0      25    3.17e-03   289.0336   289.0899   289.7024   289.7604   289.7683   
      5    0      30    4.65e-03   288.9440   289.0011   289.6688   289.7259   289.7329   
      6    0      35    5.40e-03   288.8041   288.8634   289.6158   289.6702   289.6761   
      7    0      40    1.27e-02   288.6298   288.6919   289.4966   289.5493   289.6407   
      8    0      45    2.95e-02   288.2042   288.2722   289.1731   289.2332   289.6182   
      9    0      50    3.09e-02   286.4996   286.5299   288.9016   288.9569   289.6075   
      10   0      55    3.12e-03   286.0384   286.0517   288.8648   288.9197   289.5982   
Found complex roots...
      11   0      60    1.60e-02   285.9814   285.9927   288.8599   288.9154   288.9576   
      12   0      65    3.42e-03   285.9658   285.9758   288.4646   288.8592   288.9138   
      13   0      70    3.60e-03   285.9635   285.9734   288.1197   288.8591   288.9137   
      14   0      75    3.72e-03   285.9606   285.9703   287.7796   288.8586   288.9132   
      15   2      80    7.58e-04   285.9599*  285.9696   287.5726   288.8583*  288.9128   
      16   4      83    1.45e-04   285.9599*  285.9702*  287.5358   288.8583*  288.9127*  
      17   4      84    4.71e-05   285.9599*  285.9702*  287.5363   288.8583*  288.9127*  
      18   4      85    2.77e-05   285.9599*  285.9702*  287.5270   288.8583*  288.9127*  
      19   4      86    1.37e-05   285.9599*  285.9702*  287.5324   288.8583*  288.9127*  
      20   5      87    6.78e-06   285.9599*  285.9702*  287.5293*  288.8583*  288.9127*  

     Davidson procedure converged

 EOMEE transition 1/B1u
 Total energy = -221.11538694 a.u.  Excitation energy = 285.9599 eV.
 R0^2 = 0.0000  R1^2 = 0.8358  R2_CCVV^2 = 0.0019  R2_COVV^2 = 0.0812  Res^2 = 9.12e-06
 Conv-d = yes

 Amplitude    Transitions between orbitals
  0.3854       1 (Ag) A                  ->    4 (B1u) A                  
  0.3854       1 (Ag) B                  ->    4 (B1u) B                  
  0.2830       1 (B1g) A                 ->    2 (Au) A                   
  0.2830       1 (B1g) B                 ->    2 (Au) B                   
  0.2830       2 (Ag) A                  ->    4 (B1u) A                  
  0.2830       2 (Ag) B                  ->    4 (B1u) B                  
 -0.1721       1 (B3u) A                 ->    6 (B2g) A                  
 -0.1721       1 (B3u) B                 ->    6 (B2g) B                  
 -0.1559       1 (Ag) A                  ->    6 (B1u) A                  
 -0.1559       1 (Ag) B                  ->    6 (B1u) B                  
 -0.1133       1 (B1g) A                 ->    3 (Au) A                   
 -0.1133       1 (B1g) B                 ->    3 (Au) B                   
 -0.1133       2 (Ag) A                  ->    6 (B1u) A                  
 -0.1133       2 (Ag) B                  ->    6 (B1u) B                  

              Summary of significant orbitals:

               Number  Type             Irrep      Energy
               1       Occ  Alpha       1 (Ag)    -11.2393
               4       Occ  Alpha       2 (Ag)    -11.2375
               5       Occ  Alpha       1 (B1g)    -11.2375
               2       Occ  Alpha       1 (B3u)    -11.2387
               1       Occ  Beta        1 (Ag)    -11.2393
               4       Occ  Beta        2 (Ag)    -11.2375
               5       Occ  Beta        1 (B1g)    -11.2375
               2       Occ  Beta        1 (B3u)    -11.2387
               72      Vir  Alpha       6 (B2g)      0.3744
               46      Vir  Alpha       2 (Au)      0.1142
               60      Vir  Alpha       3 (Au)      0.2392
               45      Vir  Alpha       4 (B1u)      0.1142
               59      Vir  Alpha       6 (B1u)      0.2392
               72      Vir  Beta        6 (B2g)      0.3744
               46      Vir  Beta        2 (Au)      0.1142
               60      Vir  Beta        3 (Au)      0.2392
               45      Vir  Beta        4 (B1u)      0.1142
               59      Vir  Beta        6 (B1u)      0.2392


 EOMEE transition 2/B1u
 Total energy = -221.11500621 a.u.  Excitation energy = 285.9702 eV.
 R0^2 = 0.0000  R1^2 = 0.8357  R2_CCVV^2 = 0.0019  R2_COVV^2 = 0.0812  Res^2 = 2.63e-06
 Conv-d = yes

 Amplitude    Transitions between orbitals
  0.3935       2 (Ag) A                  ->    4 (B1u) A                  
  0.3935       2 (Ag) B                  ->    4 (B1u) B                  
 -0.3935       1 (B1g) A                 ->    2 (Au) A                   
 -0.3935       1 (B1g) B                 ->    2 (Au) B                   
  0.1715       2 (B3u) A                 ->    6 (B2g) A                  
  0.1715       2 (B3u) B                 ->    6 (B2g) B                  
 -0.1576       2 (Ag) A                  ->    6 (B1u) A                  
 -0.1576       2 (Ag) B                  ->    6 (B1u) B                  
  0.1576       1 (B1g) A                 ->    3 (Au) A                   
  0.1576       1 (B1g) B                 ->    3 (Au) B                   

              Summary of significant orbitals:

               Number  Type             Irrep      Energy
               4       Occ  Alpha       2 (Ag)    -11.2375
               5       Occ  Alpha       1 (B1g)    -11.2375
               6       Occ  Alpha       2 (B3u)    -11.2369
               4       Occ  Beta        2 (Ag)    -11.2375
               5       Occ  Beta        1 (B1g)    -11.2375
               6       Occ  Beta        2 (B3u)    -11.2369
               72      Vir  Alpha       6 (B2g)      0.3744
               46      Vir  Alpha       2 (Au)      0.1142
               60      Vir  Alpha       3 (Au)      0.2392
               45      Vir  Alpha       4 (B1u)      0.1142
               59      Vir  Alpha       6 (B1u)      0.2392
               72      Vir  Beta        6 (B2g)      0.3744
               46      Vir  Beta        2 (Au)      0.1142
               60      Vir  Beta        3 (Au)      0.2392
               45      Vir  Beta        4 (B1u)      0.1142
               59      Vir  Beta        6 (B1u)      0.2392


 EOMEE transition 3/B1u
 Total energy = -221.05771304 a.u.  Excitation energy = 287.5293 eV.
 R0^2 = 0.0000  R1^2 = 0.7959  R2_CCVV^2 = 0.0017  R2_COVV^2 = 0.1012  Res^2 = 7.01e-06
 Conv-d = yes

 Amplitude    Transitions between orbitals
  0.4253       1 (Ag) A                  ->    4 (B1u) A                  
  0.4253       1 (Ag) B                  ->    4 (B1u) B                  
 -0.2918       2 (Ag) A                  ->    4 (B1u) A                  
 -0.2918       2 (Ag) B                  ->    4 (B1u) B                  
 -0.2918       1 (B1g) A                 ->    2 (Au) A                   
 -0.2918       1 (B1g) B                 ->    2 (Au) B                   
 -0.1310       1 (Ag) A                  ->    6 (B1u) A                  
 -0.1310       1 (Ag) B                  ->    6 (B1u) B                  

              Summary of significant orbitals:

               Number  Type             Irrep      Energy
               1       Occ  Alpha       1 (Ag)    -11.2393
               4       Occ  Alpha       2 (Ag)    -11.2375
               5       Occ  Alpha       1 (B1g)    -11.2375
               1       Occ  Beta        1 (Ag)    -11.2393
               4       Occ  Beta        2 (Ag)    -11.2375
               5       Occ  Beta        1 (B1g)    -11.2375
               46      Vir  Alpha       2 (Au)      0.1142
               45      Vir  Alpha       4 (B1u)      0.1142
               59      Vir  Alpha       6 (B1u)      0.2392
               46      Vir  Beta        2 (Au)      0.1142
               45      Vir  Beta        4 (B1u)      0.1142
               59      Vir  Beta        6 (B1u)      0.2392


 EOMEE transition 4/B1u
 Total energy = -221.00887348 a.u.  Excitation energy = 288.8583 eV.
 R0^2 = 0.0000  R1^2 = 0.8022  R2_CCVV^2 = 0.0016  R2_COVV^2 = 0.0981  Res^2 = 9.21e-06
 Conv-d = yes

 Amplitude    Transitions between orbitals
 -0.5530       2 (Ag) A                  ->    2 (B1u) A                  
 -0.5530       2 (Ag) B                  ->    2 (B1u) B                  
  0.1988       2 (Ag) A                  ->    5 (B1u) A                  
  0.1988       2 (Ag) B                  ->    5 (B1u) B                  
 -0.1434       2 (B3u) A                 ->    2 (B2g) A                  
 -0.1434       2 (B3u) B                 ->    2 (B2g) B                  

              Summary of significant orbitals:

               Number  Type             Irrep      Energy
               4       Occ  Alpha       2 (Ag)    -11.2375
               6       Occ  Alpha       2 (B3u)    -11.2369
               4       Occ  Beta        2 (Ag)    -11.2375
               6       Occ  Beta        2 (B3u)    -11.2369
               28      Vir  Alpha       2 (B2g)      0.0440
               27      Vir  Alpha       2 (B1u)      0.0344
               48      Vir  Alpha       5 (B1u)      0.1722
               28      Vir  Beta        2 (B2g)      0.0440
               27      Vir  Beta        2 (B1u)      0.0344
               48      Vir  Beta        5 (B1u)      0.1722


 EOMEE transition 5/B1u
 Total energy = -221.00687133 a.u.  Excitation energy = 288.9127 eV.
 R0^2 = 0.0000  R1^2 = 0.8021  R2_CCVV^2 = 0.0016  R2_COVV^2 = 0.0981  Res^2 = 5.94e-06
 Conv-d = yes

 Amplitude    Transitions between orbitals
  0.5502       1 (Ag) A                  ->    2 (B1u) A                  
  0.5502       1 (Ag) B                  ->    2 (B1u) B                  
 -0.1982       1 (Ag) A                  ->    5 (B1u) A                  
 -0.1982       1 (Ag) B                  ->    5 (B1u) B                  
 -0.1424       1 (B3u) A                 ->    2 (B2g) A                  
 -0.1424       1 (B3u) B                 ->    2 (B2g) B                  
 -0.1424       1 (B2u) A                 ->    2 (B3g) A                  
 -0.1424       1 (B2u) B                 ->    2 (B3g) B                  

              Summary of significant orbitals:

               Number  Type             Irrep      Energy
               1       Occ  Alpha       1 (Ag)    -11.2393
               3       Occ  Alpha       1 (B2u)    -11.2387
               2       Occ  Alpha       1 (B3u)    -11.2387
               1       Occ  Beta        1 (Ag)    -11.2393
               3       Occ  Beta        1 (B2u)    -11.2387
               2       Occ  Beta        1 (B3u)    -11.2387
               28      Vir  Alpha       2 (B2g)      0.0440
               29      Vir  Alpha       2 (B3g)      0.0440
               27      Vir  Alpha       2 (B1u)      0.0344
               48      Vir  Alpha       5 (B1u)      0.1722
               28      Vir  Beta        2 (B2g)      0.0440
               29      Vir  Beta        2 (B3g)      0.0440
               27      Vir  Beta        2 (B1u)      0.0344
               48      Vir  Beta        5 (B1u)      0.1722


      CVS-EOM-CCSD/MP2 left amplitudes will be solved using Davidson.
        Amplitudes will be solved using MOM  algorithm.
     Hard-coded thresholds: 
     LinDepThresh=1.00e-15  NormThresh=1.00e-06  ReorthogonThresh=1.00e-02

      Roots     MaxVec    MaxIter   Precond   Conv      Shift    
      5         120       60        1         1.00e-05  0.00e+00  
 ------------------------------------------------------------------------------
      Iter ConvRoots NVecs ResNorm Current eigenvalues (eV)
 ------------------------------------------------------------------------------
      0    0      5     2.57e-02   285.9599   285.9702   287.5293   288.8583   288.9127   
      1    0      10    1.40e+00   285.9601   285.9700   287.5300   288.8582   288.9125   
      2    0      15    2.83e-02   285.9603   285.9700   287.5300   288.8581   288.9125   
      3    0      20    2.65e-04   285.9603   285.9701   287.5300   288.8580   288.9124   
      4    0      25    4.91e-04   285.9604   285.9701   287.5300   288.8580   288.9124   
      5    2      30    3.06e-05   285.9604   285.9701   287.5300   288.8580*  288.9124*  
      6    2      33    3.54e-05   285.9604   285.9701   287.5300   288.8580*  288.9124*  
      7    1      36    1.63e-05   285.9604   285.9701   287.5300   288.8580   288.9124*  
      8    3      40    7.39e-06   285.9604*  285.9701*  287.5300   288.8580   288.9124*  
      9    5      42    2.75e-06   285.9604*  285.9701*  287.5300*  288.8580*  288.9124*  

     Davidson procedure converged

        Solving for CVS-EOMEE-CCSD B2u singlet states.

        CVS-EOMEE-CCSD/MP2 right amplitudes will be solved using Davidson.
        Amplitudes will be solved using standard  algorithm.
     Hard-coded thresholds: 
     LinDepThresh=1.00e-15  NormThresh=1.00e-06  ReorthogonThresh=1.00e-02

      Roots     MaxVec    MaxIter   Precond   Conv      Shift    
      5         120       60        1         1.00e-05  0.00e+00  
 ------------------------------------------------------------------------------
      Iter ConvRoots NVecs ResNorm Current eigenvalues (eV)
 ------------------------------------------------------------------------------
      0    0      5     1.94e+00   303.2070   303.7997   303.8375   303.9814   304.3230   
      1    0      10    4.57e+00   300.4009   300.9774   301.0100   301.1495   301.4917   
      2    0      15    1.01e-01   289.3374   289.8423   289.8625   289.9613   290.3298   
      3    0      20    8.70e-03   288.6662   289.2365   289.2517   289.3442   289.7331   
      4    0      25    5.26e-03   288.5866   289.1932   289.2082   289.3012   289.6976   
      5    0      30    1.23e-02   288.3113   289.1027   289.1229   289.2210   289.6448   
      6    0      35    7.24e-03   287.9378   288.9374   288.9597   289.0699   289.5461   
      7    0      40    4.54e-03   287.8375   288.8364   288.8581   288.9551   289.4534   
      8    0      45    4.24e-04   287.8074   288.8044   288.8161   288.9177   289.4188   
      9    0      50    3.63e-04   287.8036   288.8025   288.8130   288.9108   289.4160   
      10   0      55    3.99e-04   287.8015   288.8000   288.8068   288.8961   289.4124   
      11   0      60    6.52e-04   287.7983   288.7943   288.7946   288.8673   289.4078   
      12   0      65    1.92e-04   287.7978   288.7874   288.7917   288.8506   289.4042   
      13   1      70    9.12e-05   287.7978*  288.7843   288.7894   288.8426   289.4025   
      14   1      74    7.45e-05   287.7977*  288.7820   288.7883   288.8391   289.4016   
      15   1      78    7.48e-05   287.7977*  288.7811   288.7868   288.8355   289.4008   
      16   1      82    5.77e-05   287.7977*  288.7791   288.7861   288.8322   289.4000   
      17   1      86    2.34e-04   287.7976*  288.7794   288.7862   288.8324   289.3841   
      18   1      90    1.80e-04   287.7976*  288.7790   288.7859   288.8314   289.3808   
      19   3      94    1.18e-04   287.7975*  288.7783*  288.7854*  288.8309   289.3621   
      20   4      96    6.59e-05   287.7975*  288.7783*  288.7853*  288.8306*  289.3564   
      21   4      97    4.86e-05   287.7975*  288.7783*  288.7853*  288.8306*  289.3522   
      22   4      98    2.66e-05   287.7975*  288.7783*  288.7853*  288.8306*  289.3489   
      23   4      99    1.25e-05   287.7975*  288.7783*  288.7853*  288.8306*  289.3478   
Found complex roots...
      24   4      100   6.90e-06   287.7975*  288.7783*  288.7853*  288.8306*  289.3472   
      25   4      101   5.59e-06   287.7975*  288.7783*  288.7853*  288.8306*  289.3471   
      26   5      102   4.32e-06   287.7975*  288.7783*  288.7853*  288.8306*  289.3468*  

     Davidson procedure converged

 EOMEE transition 1/B2u
 Total energy = -221.04785427 a.u.  Excitation energy = 287.7975 eV.
 R0^2 = 0.0000  R1^2 = 0.8118  R2_CCVV^2 = 0.0017  R2_COVV^2 = 0.0932  Res^2 = 3.88e-06
 Conv-d = yes

 Amplitude    Transitions between orbitals
  0.3547       1 (B2u) A                 ->    7 (Ag) A                   
  0.3547       1 (B2u) B                 ->    7 (Ag) B                   
  0.2754       1 (B2u) A                 ->    11 (Ag) A                  
  0.2754       1 (B2u) B                 ->    11 (Ag) B                  
  0.1568       1 (Ag) A                  ->    5 (B2u) A                  
  0.1568       1 (Ag) B                  ->    5 (B2u) B                  
  0.1363       1 (Ag) A                  ->    8 (B2u) A                  
  0.1363       1 (Ag) B                  ->    8 (B2u) B                  
  0.1347       1 (B2u) A                 ->    9 (Ag) A                   
  0.1347       1 (B2u) B                 ->    9 (Ag) B                   
  0.1248       1 (B2u) A                 ->    15 (Ag) A                  
  0.1248       1 (B2u) B                 ->    15 (Ag) B                  
 -0.1185       2 (Ag) A                  ->    5 (B2u) A                  
 -0.1185       2 (Ag) B                  ->    5 (B2u) B                  
  0.1185       1 (B1g) A                 ->    6 (B3u) A                  
  0.1185       1 (B1g) B                 ->    6 (B3u) B                  
 -0.1041       1 (Ag) A                  ->    7 (B2u) A                  
 -0.1041       1 (Ag) B                  ->    7 (B2u) B                  
 -0.1018       2 (Ag) A                  ->    8 (B2u) A                  
 -0.1018       2 (Ag) B                  ->    8 (B2u) B                  
 -0.1018       1 (B1g) A                 ->    9 (B3u) A                  
 -0.1018       1 (B1g) B                 ->    9 (B3u) B                  

              Summary of significant orbitals:

               Number  Type             Irrep      Energy
               1       Occ  Alpha       1 (Ag)    -11.2393
               4       Occ  Alpha       2 (Ag)    -11.2375
               5       Occ  Alpha       1 (B1g)    -11.2375
               3       Occ  Alpha       1 (B2u)    -11.2387
               1       Occ  Beta        1 (Ag)    -11.2393
               4       Occ  Beta        2 (Ag)    -11.2375
               5       Occ  Beta        1 (B1g)    -11.2375
               3       Occ  Beta        1 (B2u)    -11.2387
               22      Vir  Alpha       7 (Ag)      0.0169
               34      Vir  Alpha       9 (Ag)      0.0572
               40      Vir  Alpha      11 (Ag)      0.0843
               58      Vir  Alpha      15 (Ag)      0.2373
               24      Vir  Alpha       5 (B2u)      0.0216
               36      Vir  Alpha       7 (B2u)      0.0667
               42      Vir  Alpha       8 (B2u)      0.0928
               23      Vir  Alpha       6 (B3u)      0.0216
               41      Vir  Alpha       9 (B3u)      0.0928
               22      Vir  Beta        7 (Ag)      0.0169
               34      Vir  Beta        9 (Ag)      0.0572
               40      Vir  Beta       11 (Ag)      0.0843
               58      Vir  Beta       15 (Ag)      0.2373
               24      Vir  Beta        5 (B2u)      0.0216
               36      Vir  Beta        7 (B2u)      0.0667
               42      Vir  Beta        8 (B2u)      0.0928
               23      Vir  Beta        6 (B3u)      0.0216
               41      Vir  Beta        9 (B3u)      0.0928


 EOMEE transition 2/B2u
 Total energy = -221.01181083 a.u.  Excitation energy = 288.7783 eV.
 R0^2 = 0.0000  R1^2 = 0.8001  R2_CCVV^2 = 0.0016  R2_COVV^2 = 0.0992  Res^2 = 7.03e-06
 Conv-d = yes

 Amplitude    Transitions between orbitals
 -0.3362       1 (B1g) A                 ->    6 (B3u) A                  
 -0.3362       1 (B1g) B                 ->    6 (B3u) B                  
 -0.3362       2 (Ag) A                  ->    5 (B2u) A                  
 -0.3362       2 (Ag) B                  ->    5 (B2u) B                  
  0.1586       1 (B1g) A                 ->    9 (B3u) A                  
  0.1586       1 (B1g) B                 ->    9 (B3u) B                  
 -0.1586       2 (Ag) A                  ->    8 (B2u) A                  
 -0.1586       2 (Ag) B                  ->    8 (B2u) B                  
  0.1578       1 (B1g) A                 ->    8 (B3u) A                  
  0.1578       1 (B1g) B                 ->    8 (B3u) B                  
  0.1578       2 (Ag) A                  ->    7 (B2u) A                  
  0.1578       2 (Ag) B                  ->    7 (B2u) B                  
 -0.1245       1 (B2u) A                 ->    8 (Ag) A                   
 -0.1245       1 (B2u) B                 ->    8 (Ag) B                   
  0.1245       1 (B3u) A                 ->    4 (B1g) A                  
  0.1245       1 (B3u) B                 ->    4 (B1g) B                  

              Summary of significant orbitals:

               Number  Type             Irrep      Energy
               4       Occ  Alpha       2 (Ag)    -11.2375
               5       Occ  Alpha       1 (B1g)    -11.2375
               3       Occ  Alpha       1 (B2u)    -11.2387
               2       Occ  Alpha       1 (B3u)    -11.2387
               4       Occ  Beta        2 (Ag)    -11.2375
               5       Occ  Beta        1 (B1g)    -11.2375
               3       Occ  Beta        1 (B2u)    -11.2387
               2       Occ  Beta        1 (B3u)    -11.2387
               25      Vir  Alpha       8 (Ag)      0.0335
               26      Vir  Alpha       4 (B1g)      0.0335
               24      Vir  Alpha       5 (B2u)      0.0216
               36      Vir  Alpha       7 (B2u)      0.0667
               42      Vir  Alpha       8 (B2u)      0.0928
               23      Vir  Alpha       6 (B3u)      0.0216
               35      Vir  Alpha       8 (B3u)      0.0667
               41      Vir  Alpha       9 (B3u)      0.0928
               25      Vir  Beta        8 (Ag)      0.0335
               26      Vir  Beta        4 (B1g)      0.0335
               24      Vir  Beta        5 (B2u)      0.0216
               36      Vir  Beta        7 (B2u)      0.0667
               42      Vir  Beta        8 (B2u)      0.0928
               23      Vir  Beta        6 (B3u)      0.0216
               35      Vir  Beta        8 (B3u)      0.0667
               41      Vir  Beta        9 (B3u)      0.0928


 EOMEE transition 3/B2u
 Total energy = -221.01155606 a.u.  Excitation energy = 288.7853 eV.
 R0^2 = 0.0000  R1^2 = 0.8001  R2_CCVV^2 = 0.0016  R2_COVV^2 = 0.0991  Res^2 = 5.27e-07
 Conv-d = yes

 Amplitude    Transitions between orbitals
 -0.2780       2 (Ag) A                  ->    5 (B2u) A                  
 -0.2780       2 (Ag) B                  ->    5 (B2u) B                  
  0.2780       1 (B1g) A                 ->    6 (B3u) A                  
  0.2780       1 (B1g) B                 ->    6 (B3u) B                  
 -0.1772       2 (B3u) A                 ->    4 (B1g) A                  
 -0.1772       2 (B3u) B                 ->    4 (B1g) B                  
 -0.1757       1 (Ag) A                  ->    5 (B2u) A                  
 -0.1757       1 (Ag) B                  ->    5 (B2u) B                  
 -0.1623       1 (B2u) A                 ->    7 (Ag) A                   
 -0.1623       1 (B2u) B                 ->    7 (Ag) B                   
 -0.1429       1 (B2u) A                 ->    9 (Ag) A                   
 -0.1429       1 (B2u) B                 ->    9 (Ag) B                   
 -0.1385       2 (Ag) A                  ->    8 (B2u) A                  
 -0.1385       2 (Ag) B                  ->    8 (B2u) B                  
 -0.1385       1 (B1g) A                 ->    9 (B3u) A                  
 -0.1385       1 (B1g) B                 ->    9 (B3u) B                  
  0.1371       2 (B3u) A                 ->    6 (B1g) A                  
  0.1371       2 (B3u) B                 ->    6 (B1g) B                  
  0.1212       2 (Ag) A                  ->    7 (B2u) A                  
  0.1212       2 (Ag) B                  ->    7 (B2u) B                  
 -0.1212       1 (B1g) A                 ->    8 (B3u) A                  
 -0.1212       1 (B1g) B                 ->    8 (B3u) B                  

              Summary of significant orbitals:

               Number  Type             Irrep      Energy
               1       Occ  Alpha       1 (Ag)    -11.2393
               4       Occ  Alpha       2 (Ag)    -11.2375
               5       Occ  Alpha       1 (B1g)    -11.2375
               3       Occ  Alpha       1 (B2u)    -11.2387
               6       Occ  Alpha       2 (B3u)    -11.2369
               1       Occ  Beta        1 (Ag)    -11.2393
               4       Occ  Beta        2 (Ag)    -11.2375
               5       Occ  Beta        1 (B1g)    -11.2375
               3       Occ  Beta        1 (B2u)    -11.2387
               6       Occ  Beta        2 (B3u)    -11.2369
               22      Vir  Alpha       7 (Ag)      0.0169
               34      Vir  Alpha       9 (Ag)      0.0572
               26      Vir  Alpha       4 (B1g)      0.0335
               44      Vir  Alpha       6 (B1g)      0.1027
               24      Vir  Alpha       5 (B2u)      0.0216
               36      Vir  Alpha       7 (B2u)      0.0667
               42      Vir  Alpha       8 (B2u)      0.0928
               23      Vir  Alpha       6 (B3u)      0.0216
               35      Vir  Alpha       8 (B3u)      0.0667
               41      Vir  Alpha       9 (B3u)      0.0928
               22      Vir  Beta        7 (Ag)      0.0169
               34      Vir  Beta        9 (Ag)      0.0572
               26      Vir  Beta        4 (B1g)      0.0335
               44      Vir  Beta        6 (B1g)      0.1027
               24      Vir  Beta        5 (B2u)      0.0216
               36      Vir  Beta        7 (B2u)      0.0667
               42      Vir  Beta        8 (B2u)      0.0928
               23      Vir  Beta        6 (B3u)      0.0216
               35      Vir  Beta        8 (B3u)      0.0667
               41      Vir  Beta        9 (B3u)      0.0928


 EOMEE transition 4/B2u
 Total energy = -221.00988867 a.u.  Excitation energy = 288.8306 eV.
 R0^2 = 0.0000  R1^2 = 0.8002  R2_CCVV^2 = 0.0016  R2_COVV^2 = 0.0991  Res^2 = 3.71e-06
 Conv-d = yes

 Amplitude    Transitions between orbitals
  0.3504       1 (Ag) A                  ->    5 (B2u) A                  
  0.3504       1 (Ag) B                  ->    5 (B2u) B                  
 -0.2609       1 (B2u) A                 ->    7 (Ag) A                   
 -0.2609       1 (B2u) B                 ->    7 (Ag) B                   
 -0.2523       1 (B2u) A                 ->    9 (Ag) A                   
 -0.2523       1 (B2u) B                 ->    9 (Ag) B                   
  0.1869       1 (Ag) A                  ->    8 (B2u) A                  
  0.1869       1 (Ag) B                  ->    8 (B2u) B                  
 -0.1465       1 (Ag) A                  ->    7 (B2u) A                  
 -0.1465       1 (Ag) B                  ->    7 (B2u) B                  
 -0.1182       1 (B3u) A                 ->    4 (B1g) A                  
 -0.1182       1 (B3u) B                 ->    4 (B1g) B                  
 -0.1182       1 (B2u) A                 ->    8 (Ag) A                   
 -0.1182       1 (B2u) B                 ->    8 (Ag) B                   
 -0.1181       1 (B2u) A                 ->    13 (Ag) A                  
 -0.1181       1 (B2u) B                 ->    13 (Ag) B                  

              Summary of significant orbitals:

               Number  Type             Irrep      Energy
               1       Occ  Alpha       1 (Ag)    -11.2393
               3       Occ  Alpha       1 (B2u)    -11.2387
               2       Occ  Alpha       1 (B3u)    -11.2387
               1       Occ  Beta        1 (Ag)    -11.2393
               3       Occ  Beta        1 (B2u)    -11.2387
               2       Occ  Beta        1 (B3u)    -11.2387
               22      Vir  Alpha       7 (Ag)      0.0169
               25      Vir  Alpha       8 (Ag)      0.0335
               34      Vir  Alpha       9 (Ag)      0.0572
               52      Vir  Alpha      13 (Ag)      0.1946
               26      Vir  Alpha       4 (B1g)      0.0335
               24      Vir  Alpha       5 (B2u)      0.0216
               36      Vir  Alpha       7 (B2u)      0.0667
               42      Vir  Alpha       8 (B2u)      0.0928
               22      Vir  Beta        7 (Ag)      0.0169
               25      Vir  Beta        8 (Ag)      0.0335
               34      Vir  Beta        9 (Ag)      0.0572
               52      Vir  Beta       13 (Ag)      0.1946
               26      Vir  Beta        4 (B1g)      0.0335
               24      Vir  Beta        5 (B2u)      0.0216
               36      Vir  Beta        7 (B2u)      0.0667
               42      Vir  Beta        8 (B2u)      0.0928


 EOMEE transition 5/B2u
 Total energy = -220.99091986 a.u.  Excitation energy = 289.3468 eV.
 R0^2 = 0.0000  R1^2 = 0.8005  R2_CCVV^2 = 0.0016  R2_COVV^2 = 0.0989  Res^2 = 6.47e-06
 Conv-d = yes

 Amplitude    Transitions between orbitals
  0.4429       1 (B2u) A                 ->    9 (Ag) A                   
  0.4429       1 (B2u) B                 ->    9 (Ag) B                   
  0.2120       1 (B2u) A                 ->    13 (Ag) A                  
  0.2120       1 (B2u) B                 ->    13 (Ag) B                  
 -0.2073       1 (B2u) A                 ->    11 (Ag) A                  
 -0.2073       1 (B2u) B                 ->    11 (Ag) B                  
 -0.1889       1 (B2u) A                 ->    7 (Ag) A                   
 -0.1889       1 (B2u) B                 ->    7 (Ag) B                   
  0.1159       1 (Ag) A                  ->    5 (B2u) A                  
  0.1159       1 (Ag) B                  ->    5 (B2u) B                  
 -0.1010       2 (B3u) A                 ->    4 (B1g) A                  
 -0.1010       2 (B3u) B                 ->    4 (B1g) B                  

              Summary of significant orbitals:

               Number  Type             Irrep      Energy
               1       Occ  Alpha       1 (Ag)    -11.2393
               3       Occ  Alpha       1 (B2u)    -11.2387
               6       Occ  Alpha       2 (B3u)    -11.2369
               1       Occ  Beta        1 (Ag)    -11.2393
               3       Occ  Beta        1 (B2u)    -11.2387
               6       Occ  Beta        2 (B3u)    -11.2369
               22      Vir  Alpha       7 (Ag)      0.0169
               34      Vir  Alpha       9 (Ag)      0.0572
               40      Vir  Alpha      11 (Ag)      0.0843
               52      Vir  Alpha      13 (Ag)      0.1946
               26      Vir  Alpha       4 (B1g)      0.0335
               24      Vir  Alpha       5 (B2u)      0.0216
               22      Vir  Beta        7 (Ag)      0.0169
               34      Vir  Beta        9 (Ag)      0.0572
               40      Vir  Beta       11 (Ag)      0.0843
               52      Vir  Beta       13 (Ag)      0.1946
               26      Vir  Beta        4 (B1g)      0.0335
               24      Vir  Beta        5 (B2u)      0.0216


      CVS-EOM-CCSD/MP2 left amplitudes will be solved using Davidson.
        Amplitudes will be solved using MOM  algorithm.
     Hard-coded thresholds: 
     LinDepThresh=1.00e-15  NormThresh=1.00e-06  ReorthogonThresh=1.00e-02

      Roots     MaxVec    MaxIter   Precond   Conv      Shift    
      5         120       60        1         1.00e-05  0.00e+00  
 ------------------------------------------------------------------------------
      Iter ConvRoots NVecs ResNorm Current eigenvalues (eV)
 ------------------------------------------------------------------------------
      0    0      5     3.03e-02   287.7975   288.7783   288.7853   288.8306   289.3468   
      1    0      10    2.38e+00   287.7975   288.7783   288.7853   288.8306   289.3467   
      2    0      15    5.80e-02   287.7975   288.7784   288.7853   288.8306   289.3467   
      3    0      20    3.43e-04   287.7975   288.7783   288.7853   288.8306   289.3466   
      4    0      25    5.13e-04   287.7975   288.7783   288.7853   288.8306   289.3466   
      5    3      30    7.84e-06   287.7975*  288.7783   288.7852*  288.8306   289.3466*  
      6    3      32    2.34e-05   287.7975*  288.7783   288.7852*  288.8306   289.3466*  
      7    5      34    2.79e-06   287.7975*  288.7783*  288.7852*  288.8306*  289.3466*  

     Davidson procedure converged

        Solving for CVS-EOMEE-CCSD B3u singlet states.

        CVS-EOMEE-CCSD/MP2 right amplitudes will be solved using Davidson.
        Amplitudes will be solved using standard  algorithm.
     Hard-coded thresholds: 
     LinDepThresh=1.00e-15  NormThresh=1.00e-06  ReorthogonThresh=1.00e-02

      Roots     MaxVec    MaxIter   Precond   Conv      Shift    
      5         120       60        1         1.00e-05  0.00e+00  
 ------------------------------------------------------------------------------
      Iter ConvRoots NVecs ResNorm Current eigenvalues (eV)
 ------------------------------------------------------------------------------
      0    0      5     1.94e+00   303.1791   303.2223   303.8594   303.9631   303.9985   
      1    0      10    4.63e+00   300.3670   300.4148   301.0333   301.1247   301.1638   
      2    0      15    1.03e-01   289.2876   289.3448   289.8831   289.9187   289.9658   
      3    0      20    9.38e-03   288.6184   288.6729   289.2711   289.3019   289.3479   
      4    0      25    6.38e-03   288.5399   288.5937   289.2278   289.2596   289.3052   
      5    0      30    1.75e-02   288.2682   288.3230   289.1437   289.1809   289.2267   
      6    0      35    8.35e-03   287.8959   287.9484   288.9820   289.0334   289.0797   
      7    0      40    4.77e-03   287.7948   287.8451   288.8786   288.9164   288.9629   
      8    0      45    4.80e-04   287.7632   287.8126   288.8361   288.8809   288.9261   
      9    0      50    5.70e-04   287.7582   287.8073   288.8324   288.8730   288.9184   
      10   0      55    6.56e-04   287.7554   287.8041   288.8246   288.8556   288.9012   
      11   0      60    1.03e-03   287.7511   287.7993   288.8082   288.8232   288.8695   
      12   0      65    3.01e-04   287.7503   287.7983   288.7986   288.8045   288.8515   
      13   0      70    1.32e-04   287.7503   287.7983   288.7939   288.7956   288.8434   
      14   1      75    1.05e-04   287.7499*  287.7978   288.7911   288.7915   288.8394   
      15   2      79    1.17e-04   287.7499*  287.7975*  288.7877   288.7892   288.8362   
      16   2      82    6.69e-05   287.7499*  287.7975*  288.7833   288.7865   288.8323   
      17   2      85    3.02e-05   287.7499*  287.7975*  288.7838   288.7868   288.8327   
      18   2      88    2.16e-05   287.7499*  287.7975*  288.7824   288.7861   288.8316   
      19   2      91    1.29e-05   287.7499*  287.7975*  288.7818   288.7854   288.8309   
      20   5      94    6.77e-06   287.7499*  287.7975*  288.7816*  288.7853*  288.8307*  

     Davidson procedure converged

 EOMEE transition 1/B3u
 Total energy = -221.04960430 a.u.  Excitation energy = 287.7499 eV.
 R0^2 = 0.0000  R1^2 = 0.8118  R2_CCVV^2 = 0.0017  R2_COVV^2 = 0.0932  Res^2 = 8.65e-06
 Conv-d = yes

 Amplitude    Transitions between orbitals
 -0.3601       2 (B3u) A                 ->    7 (Ag) A                   
 -0.3601       2 (B3u) B                 ->    7 (Ag) B                   
 -0.2790       2 (B3u) A                 ->    11 (Ag) A                  
 -0.2790       2 (B3u) B                 ->    11 (Ag) B                  
  0.1592       1 (B1g) A                 ->    5 (B2u) A                  
  0.1592       1 (B1g) B                 ->    5 (B2u) B                  
 -0.1592       2 (Ag) A                  ->    6 (B3u) A                  
 -0.1592       2 (Ag) B                  ->    6 (B3u) B                  
  0.1384       1 (B1g) A                 ->    8 (B2u) A                  
  0.1384       1 (B1g) B                 ->    8 (B2u) B                  
  0.1384       2 (Ag) A                  ->    9 (B3u) A                  
  0.1384       2 (Ag) B                  ->    9 (B3u) B                  
 -0.1350       2 (B3u) A                 ->    9 (Ag) A                   
 -0.1350       2 (B3u) B                 ->    9 (Ag) B                   
 -0.1268       2 (B3u) A                 ->    15 (Ag) A                  
 -0.1268       2 (B3u) B                 ->    15 (Ag) B                  
 -0.1053       1 (B1g) A                 ->    7 (B2u) A                  
 -0.1053       1 (B1g) B                 ->    7 (B2u) B                  
  0.1053       2 (Ag) A                  ->    8 (B3u) A                  
  0.1053       2 (Ag) B                  ->    8 (B3u) B                  

              Summary of significant orbitals:

               Number  Type             Irrep      Energy
               4       Occ  Alpha       2 (Ag)    -11.2375
               5       Occ  Alpha       1 (B1g)    -11.2375
               6       Occ  Alpha       2 (B3u)    -11.2369
               4       Occ  Beta        2 (Ag)    -11.2375
               5       Occ  Beta        1 (B1g)    -11.2375
               6       Occ  Beta        2 (B3u)    -11.2369
               22      Vir  Alpha       7 (Ag)      0.0169
               34      Vir  Alpha       9 (Ag)      0.0572
               40      Vir  Alpha      11 (Ag)      0.0843
               58      Vir  Alpha      15 (Ag)      0.2373
               24      Vir  Alpha       5 (B2u)      0.0216
               36      Vir  Alpha       7 (B2u)      0.0667
               42      Vir  Alpha       8 (B2u)      0.0928
               23      Vir  Alpha       6 (B3u)      0.0216
               35      Vir  Alpha       8 (B3u)      0.0667
               41      Vir  Alpha       9 (B3u)      0.0928
               22      Vir  Beta        7 (Ag)      0.0169
               34      Vir  Beta        9 (Ag)      0.0572
               40      Vir  Beta       11 (Ag)      0.0843
               58      Vir  Beta       15 (Ag)      0.2373
               24      Vir  Beta        5 (B2u)      0.0216
               36      Vir  Beta        7 (B2u)      0.0667
               42      Vir  Beta        8 (B2u)      0.0928
               23      Vir  Beta        6 (B3u)      0.0216
               35      Vir  Beta        8 (B3u)      0.0667
               41      Vir  Beta        9 (B3u)      0.0928


 EOMEE transition 2/B3u
 Total energy = -221.04785664 a.u.  Excitation energy = 287.7975 eV.
 R0^2 = 0.0000  R1^2 = 0.8118  R2_CCVV^2 = 0.0017  R2_COVV^2 = 0.0933  Res^2 = 5.94e-06
 Conv-d = yes

 Amplitude    Transitions between orbitals
  0.3548       1 (B3u) A                 ->    7 (Ag) A                   
  0.3548       1 (B3u) B                 ->    7 (Ag) B                   
  0.2760       1 (B3u) A                 ->    11 (Ag) A                  
  0.2760       1 (B3u) B                 ->    11 (Ag) B                  
 -0.1569       1 (Ag) A                  ->    6 (B3u) A                  
 -0.1569       1 (Ag) B                  ->    6 (B3u) B                  
  0.1374       1 (Ag) A                  ->    9 (B3u) A                  
  0.1374       1 (Ag) B                  ->    9 (B3u) B                  
  0.1332       1 (B3u) A                 ->    9 (Ag) A                   
  0.1332       1 (B3u) B                 ->    9 (Ag) B                   
  0.1257       1 (B3u) A                 ->    15 (Ag) A                  
  0.1257       1 (B3u) B                 ->    15 (Ag) B                  
 -0.1185       2 (Ag) A                  ->    6 (B3u) A                  
 -0.1185       2 (Ag) B                  ->    6 (B3u) B                  
 -0.1185       1 (B1g) A                 ->    5 (B2u) A                  
 -0.1185       1 (B1g) B                 ->    5 (B2u) B                  
  0.1031       1 (Ag) A                  ->    8 (B3u) A                  
  0.1031       1 (Ag) B                  ->    8 (B3u) B                  
  0.1018       2 (Ag) A                  ->    9 (B3u) A                  
  0.1018       2 (Ag) B                  ->    9 (B3u) B                  
 -0.1018       1 (B1g) A                 ->    8 (B2u) A                  
 -0.1018       1 (B1g) B                 ->    8 (B2u) B                  

              Summary of significant orbitals:

               Number  Type             Irrep      Energy
               1       Occ  Alpha       1 (Ag)    -11.2393
               4       Occ  Alpha       2 (Ag)    -11.2375
               5       Occ  Alpha       1 (B1g)    -11.2375
               2       Occ  Alpha       1 (B3u)    -11.2387
               1       Occ  Beta        1 (Ag)    -11.2393
               4       Occ  Beta        2 (Ag)    -11.2375
               5       Occ  Beta        1 (B1g)    -11.2375
               2       Occ  Beta        1 (B3u)    -11.2387
               22      Vir  Alpha       7 (Ag)      0.0169
               34      Vir  Alpha       9 (Ag)      0.0572
               40      Vir  Alpha      11 (Ag)      0.0843
               58      Vir  Alpha      15 (Ag)      0.2373
               24      Vir  Alpha       5 (B2u)      0.0216
               42      Vir  Alpha       8 (B2u)      0.0928
               23      Vir  Alpha       6 (B3u)      0.0216
               35      Vir  Alpha       8 (B3u)      0.0667
               41      Vir  Alpha       9 (B3u)      0.0928
               22      Vir  Beta        7 (Ag)      0.0169
               34      Vir  Beta        9 (Ag)      0.0572
               40      Vir  Beta       11 (Ag)      0.0843
               58      Vir  Beta       15 (Ag)      0.2373
               24      Vir  Beta        5 (B2u)      0.0216
               42      Vir  Beta        8 (B2u)      0.0928
               23      Vir  Beta        6 (B3u)      0.0216
               35      Vir  Beta        8 (B3u)      0.0667
               41      Vir  Beta        9 (B3u)      0.0928


 EOMEE transition 3/B3u
 Total energy = -221.01169262 a.u.  Excitation energy = 288.7815 eV.
 R0^2 = 0.0000  R1^2 = 0.8004  R2_CCVV^2 = 0.0017  R2_COVV^2 = 0.0990  Res^2 = 8.76e-06
 Conv-d = yes

 Amplitude    Transitions between orbitals
 -0.3017       2 (B3u) A                 ->    7 (Ag) A                   
 -0.3017       2 (B3u) B                 ->    7 (Ag) B                   
 -0.2934       2 (B3u) A                 ->    9 (Ag) A                   
 -0.2934       2 (B3u) B                 ->    9 (Ag) B                   
 -0.2170       1 (B1g) A                 ->    5 (B2u) A                  
 -0.2170       1 (B1g) B                 ->    5 (B2u) B                  
  0.2170       2 (Ag) A                  ->    6 (B3u) A                  
  0.2170       2 (Ag) B                  ->    6 (B3u) B                  
 -0.1371       2 (B3u) A                 ->    13 (Ag) A                  
 -0.1371       2 (B3u) B                 ->    13 (Ag) B                  
 -0.1257       1 (B1g) A                 ->    8 (B2u) A                  
 -0.1257       1 (B1g) B                 ->    8 (B2u) B                  
 -0.1257       2 (Ag) A                  ->    9 (B3u) A                  
 -0.1257       2 (Ag) B                  ->    9 (B3u) B                  
 -0.1100       1 (B3u) A                 ->    8 (Ag) A                   
 -0.1100       1 (B3u) B                 ->    8 (Ag) B                   
 -0.1100       1 (B2u) A                 ->    4 (B1g) A                  
 -0.1100       1 (B2u) B                 ->    4 (B1g) B                  

              Summary of significant orbitals:

               Number  Type             Irrep      Energy
               4       Occ  Alpha       2 (Ag)    -11.2375
               5       Occ  Alpha       1 (B1g)    -11.2375
               3       Occ  Alpha       1 (B2u)    -11.2387
               2       Occ  Alpha       1 (B3u)    -11.2387
               6       Occ  Alpha       2 (B3u)    -11.2369
               4       Occ  Beta        2 (Ag)    -11.2375
               5       Occ  Beta        1 (B1g)    -11.2375
               3       Occ  Beta        1 (B2u)    -11.2387
               2       Occ  Beta        1 (B3u)    -11.2387
               6       Occ  Beta        2 (B3u)    -11.2369
               22      Vir  Alpha       7 (Ag)      0.0169
               25      Vir  Alpha       8 (Ag)      0.0335
               34      Vir  Alpha       9 (Ag)      0.0572
               52      Vir  Alpha      13 (Ag)      0.1946
               26      Vir  Alpha       4 (B1g)      0.0335
               24      Vir  Alpha       5 (B2u)      0.0216
               42      Vir  Alpha       8 (B2u)      0.0928
               23      Vir  Alpha       6 (B3u)      0.0216
               41      Vir  Alpha       9 (B3u)      0.0928
               22      Vir  Beta        7 (Ag)      0.0169
               25      Vir  Beta        8 (Ag)      0.0335
               34      Vir  Beta        9 (Ag)      0.0572
               52      Vir  Beta       13 (Ag)      0.1946
               26      Vir  Beta        4 (B1g)      0.0335
               24      Vir  Beta        5 (B2u)      0.0216
               42      Vir  Beta        8 (B2u)      0.0928
               23      Vir  Beta        6 (B3u)      0.0216
               41      Vir  Beta        9 (B3u)      0.0928


 EOMEE transition 4/B3u
 Total energy = -221.01155439 a.u.  Excitation energy = 288.7853 eV.
 R0^2 = 0.0000  R1^2 = 0.8001  R2_CCVV^2 = 0.0016  R2_COVV^2 = 0.0992  Res^2 = 4.15e-06
 Conv-d = yes

 Amplitude    Transitions between orbitals
  0.2781       2 (Ag) A                  ->    6 (B3u) A                  
  0.2781       2 (Ag) B                  ->    6 (B3u) B                  
  0.2781       1 (B1g) A                 ->    5 (B2u) A                  
  0.2781       1 (B1g) B                 ->    5 (B2u) B                  
  0.1765       2 (B3u) A                 ->    8 (Ag) A                   
  0.1765       2 (B3u) B                 ->    8 (Ag) B                   
 -0.1760       1 (Ag) A                  ->    6 (B3u) A                  
 -0.1760       1 (Ag) B                  ->    6 (B3u) B                  
  0.1623       1 (B3u) A                 ->    7 (Ag) A                   
  0.1623       1 (B3u) B                 ->    7 (Ag) B                   
  0.1421       1 (B3u) A                 ->    9 (Ag) A                   
  0.1421       1 (B3u) B                 ->    9 (Ag) B                   
 -0.1379       2 (Ag) A                  ->    9 (B3u) A                  
 -0.1379       2 (Ag) B                  ->    9 (B3u) B                  
  0.1379       1 (B1g) A                 ->    8 (B2u) A                  
  0.1379       1 (B1g) B                 ->    8 (B2u) B                  
 -0.1374       2 (B3u) A                 ->    12 (Ag) A                  
 -0.1374       2 (B3u) B                 ->    12 (Ag) B                  
 -0.1224       2 (Ag) A                  ->    8 (B3u) A                  
 -0.1224       2 (Ag) B                  ->    8 (B3u) B                  
 -0.1224       1 (B1g) A                 ->    7 (B2u) A                  
 -0.1224       1 (B1g) B                 ->    7 (B2u) B                  

              Summary of significant orbitals:

               Number  Type             Irrep      Energy
               1       Occ  Alpha       1 (Ag)    -11.2393
               4       Occ  Alpha       2 (Ag)    -11.2375
               5       Occ  Alpha       1 (B1g)    -11.2375
               2       Occ  Alpha       1 (B3u)    -11.2387
               6       Occ  Alpha       2 (B3u)    -11.2369
               1       Occ  Beta        1 (Ag)    -11.2393
               4       Occ  Beta        2 (Ag)    -11.2375
               5       Occ  Beta        1 (B1g)    -11.2375
               2       Occ  Beta        1 (B3u)    -11.2387
               6       Occ  Beta        2 (B3u)    -11.2369
               22      Vir  Alpha       7 (Ag)      0.0169
               25      Vir  Alpha       8 (Ag)      0.0335
               34      Vir  Alpha       9 (Ag)      0.0572
               43      Vir  Alpha      12 (Ag)      0.1027
               24      Vir  Alpha       5 (B2u)      0.0216
               36      Vir  Alpha       7 (B2u)      0.0667
               42      Vir  Alpha       8 (B2u)      0.0928
               23      Vir  Alpha       6 (B3u)      0.0216
               35      Vir  Alpha       8 (B3u)      0.0667
               41      Vir  Alpha       9 (B3u)      0.0928
               22      Vir  Beta        7 (Ag)      0.0169
               25      Vir  Beta        8 (Ag)      0.0335
               34      Vir  Beta        9 (Ag)      0.0572
               43      Vir  Beta       12 (Ag)      0.1027
               24      Vir  Beta        5 (B2u)      0.0216
               36      Vir  Beta        7 (B2u)      0.0667
               42      Vir  Beta        8 (B2u)      0.0928
               23      Vir  Beta        6 (B3u)      0.0216
               35      Vir  Beta        8 (B3u)      0.0667
               41      Vir  Beta        9 (B3u)      0.0928


 EOMEE transition 5/B3u
 Total energy = -221.00988480 a.u.  Excitation energy = 288.8307 eV.
 R0^2 = 0.0000  R1^2 = 0.8002  R2_CCVV^2 = 0.0016  R2_COVV^2 = 0.0991  Res^2 = 6.35e-06
 Conv-d = yes

 Amplitude    Transitions between orbitals
  0.3500       1 (Ag) A                  ->    6 (B3u) A                  
  0.3500       1 (Ag) B                  ->    6 (B3u) B                  
  0.2617       1 (B3u) A                 ->    7 (Ag) A                   
  0.2617       1 (B3u) B                 ->    7 (Ag) B                   
  0.2499       1 (B3u) A                 ->    9 (Ag) A                   
  0.2499       1 (B3u) B                 ->    9 (Ag) B                   
 -0.1859       1 (Ag) A                  ->    9 (B3u) A                  
 -0.1859       1 (Ag) B                  ->    9 (B3u) B                  
 -0.1469       1 (Ag) A                  ->    8 (B3u) A                  
 -0.1469       1 (Ag) B                  ->    8 (B3u) B                  
 -0.1203       1 (B3u) A                 ->    8 (Ag) A                   
 -0.1203       1 (B3u) B                 ->    8 (Ag) B                   
  0.1203       1 (B2u) A                 ->    4 (B1g) A                  
  0.1203       1 (B2u) B                 ->    4 (B1g) B                  
  0.1167       1 (B3u) A                 ->    13 (Ag) A                  
  0.1167       1 (B3u) B                 ->    13 (Ag) B                  

              Summary of significant orbitals:

               Number  Type             Irrep      Energy
               1       Occ  Alpha       1 (Ag)    -11.2393
               3       Occ  Alpha       1 (B2u)    -11.2387
               2       Occ  Alpha       1 (B3u)    -11.2387
               1       Occ  Beta        1 (Ag)    -11.2393
               3       Occ  Beta        1 (B2u)    -11.2387
               2       Occ  Beta        1 (B3u)    -11.2387
               22      Vir  Alpha       7 (Ag)      0.0169
               25      Vir  Alpha       8 (Ag)      0.0335
               34      Vir  Alpha       9 (Ag)      0.0572
               52      Vir  Alpha      13 (Ag)      0.1946
               26      Vir  Alpha       4 (B1g)      0.0335
               23      Vir  Alpha       6 (B3u)      0.0216
               35      Vir  Alpha       8 (B3u)      0.0667
               41      Vir  Alpha       9 (B3u)      0.0928
               22      Vir  Beta        7 (Ag)      0.0169
               25      Vir  Beta        8 (Ag)      0.0335
               34      Vir  Beta        9 (Ag)      0.0572
               52      Vir  Beta       13 (Ag)      0.1946
               26      Vir  Beta        4 (B1g)      0.0335
               23      Vir  Beta        6 (B3u)      0.0216
               35      Vir  Beta        8 (B3u)      0.0667
[...]

      Roots     MaxVec    MaxIter   Precond   Conv      Shift    
      5         120       60        1         1.00e-05  0.00e+00  
 ------------------------------------------------------------------------------
      Iter ConvRoots NVecs ResNorm Current eigenvalues (eV)
 ------------------------------------------------------------------------------
      0    0      5     2.95e-02   287.7499   287.7975   288.7816   288.7853   288.8307   
      1    0      10    4.16e+00   287.7497   287.7973   288.7814   288.7852   288.8306   
      2    0      15    7.74e-02   287.7498   287.7975   288.7815   288.7853   288.8307   
      3    0      20    2.76e-04   287.7498   287.7975   288.7815   288.7853   288.8307   
      4    0      25    7.54e-04   287.7498   287.7975   288.7814   288.7853   288.8307   
      5    4      30    8.39e-06   287.7498*  287.7975*  288.7814*  288.7853   288.8306*  
      6    3      31    1.49e-05   287.7498*  287.7975*  288.7814*  288.7853   288.8306   
      7    4      33    1.82e-05   287.7498*  287.7975*  288.7814*  288.7853*  288.8306   
      8    4      34    8.85e-06   287.7498*  287.7975*  288.7814*  288.7853*  288.8306   
      9    2      35    2.19e-05   287.7498*  287.7975   288.7814*  288.7853   288.8306   
      10   2      38    2.35e-05   287.7498*  287.7975   288.7814*  288.7853   288.8306   
      11   4      41    7.76e-06   287.7498*  287.7975*  288.7814*  288.7852*  288.8306   
      12   3      42    1.29e-05   287.7498*  287.7975   288.7814*  288.7852*  288.8306   
      13   5      44    7.75e-06   287.7498*  287.7975*  288.7814*  288.7852*  288.8306*  

     Davidson procedure converged

 CVS-EOMEE-CCSD calculation:   CPU 13139.13 s  wall 14820.63 s


 Start computing the transition properties

 ------------------------------------------------------------------------------
 State A: ccsd: 0/Ag
 State B: cvs_eomee_ccsd/rhfref/singlets: 1/B1u
 Transition dipole moment (a.u.):
   A->B: 0.000001 (X 0.000000, Y 0.000000, Z 0.000000)
   B->A: 0.000001 (X 0.000000, Y 0.000000, Z -0.000001)
 Oscillator strength (a.u.): 0.000000
 Norm of one-particle transition density matrix:
   A->B: 0.890071;   B->A: 0.893237
   ||gamma^AB||*||gamma^BA||: 0.795043

 ------------------------------------------------------------------------------
 State A: ccsd: 0/Ag
 State B: cvs_eomee_ccsd/rhfref/singlets: 2/B1u
 Transition dipole moment (a.u.):
   A->B: 0.207189 (X 0.000000, Y 0.000000, Z 0.207189)
   B->A: 0.210959 (X 0.000000, Y 0.000000, Z 0.210959)
 Oscillator strength (a.u.): 0.306228
 Norm of one-particle transition density matrix:
   A->B: 0.890034;   B->A: 0.892934
   ||gamma^AB||*||gamma^BA||: 0.794742

 ------------------------------------------------------------------------------
 State A: ccsd: 0/Ag
 State B: cvs_eomee_ccsd/rhfref/singlets: 3/B1u
 Transition dipole moment (a.u.):
   A->B: 0.000000 (X 0.000000, Y 0.000000, Z 0.000000)
   B->A: 0.000000 (X 0.000000, Y 0.000000, Z 0.000000)
 Oscillator strength (a.u.): 0.000000
 Norm of one-particle transition density matrix:
   A->B: 0.868234;   B->A: 0.855947
   ||gamma^AB||*||gamma^BA||: 0.743163

 ------------------------------------------------------------------------------
 State A: ccsd: 0/Ag
 State B: cvs_eomee_ccsd/rhfref/singlets: 4/B1u
 Transition dipole moment (a.u.):
   A->B: 0.000000 (X 0.000000, Y 0.000000, Z 0.000000)
   B->A: 0.000000 (X 0.000000, Y 0.000000, Z 0.000000)
 Oscillator strength (a.u.): 0.000000
 Norm of one-particle transition density matrix:
   A->B: 0.899049;   B->A: 0.858030
   ||gamma^AB||*||gamma^BA||: 0.771411

 ------------------------------------------------------------------------------
 State A: ccsd: 0/Ag
 State B: cvs_eomee_ccsd/rhfref/singlets: 5/B1u
 Transition dipole moment (a.u.):
   A->B: 0.027502 (X 0.000000, Y 0.000000, Z 0.027502)
   B->A: 0.028228 (X 0.000000, Y 0.000000, Z 0.028228)
 Oscillator strength (a.u.): 0.005495
 Norm of one-particle transition density matrix:
   A->B: 0.898983;   B->A: 0.857946
   ||gamma^AB||*||gamma^BA||: 0.771278

 ------------------------------------------------------------------------------
 State A: ccsd: 0/Ag
 State B: cvs_eomee_ccsd/rhfref/singlets: 1/B2u
 Transition dipole moment (a.u.):
   A->B: 0.056393 (X 0.000000, Y 0.056393, Z 0.000000)
   B->A: 0.055393 (X 0.000000, Y 0.055393, Z 0.000000)
 Oscillator strength (a.u.): 0.022026
 Norm of one-particle transition density matrix:
   A->B: 0.902253;   B->A: 0.866917
   ||gamma^AB||*||gamma^BA||: 0.782178

 ------------------------------------------------------------------------------
 State A: ccsd: 0/Ag
 State B: cvs_eomee_ccsd/rhfref/singlets: 2/B2u
 Transition dipole moment (a.u.):
   A->B: 0.000000 (X 0.000000, Y 0.000000, Z 0.000000)
   B->A: 0.000000 (X 0.000000, Y 0.000000, Z 0.000000)
 Oscillator strength (a.u.): 0.000000
 Norm of one-particle transition density matrix:
   A->B: 0.897381;   B->A: 0.856262
   ||gamma^AB||*||gamma^BA||: 0.768393

 ------------------------------------------------------------------------------
 State A: ccsd: 0/Ag
 State B: cvs_eomee_ccsd/rhfref/singlets: 3/B2u
 Transition dipole moment (a.u.):
   A->B: 0.015935 (X 0.000000, Y 0.015935, Z 0.000000)
   B->A: 0.015716 (X 0.000000, Y 0.015716, Z 0.000000)
 Oscillator strength (a.u.): 0.001772
 Norm of one-particle transition density matrix:
   A->B: 0.897398;   B->A: 0.856262
   ||gamma^AB||*||gamma^BA||: 0.768407

 ------------------------------------------------------------------------------
 State A: ccsd: 0/Ag
 State B: cvs_eomee_ccsd/rhfref/singlets: 4/B2u
 Transition dipole moment (a.u.):
   A->B: 0.026858 (X 0.000000, Y 0.026858, Z 0.000000)
   B->A: 0.026350 (X 0.000000, Y 0.026350, Z 0.000000)
 Oscillator strength (a.u.): 0.005008
 Norm of one-particle transition density matrix:
   A->B: 0.897494;   B->A: 0.856402
   ||gamma^AB||*||gamma^BA||: 0.768616

 ------------------------------------------------------------------------------
 State A: ccsd: 0/Ag
 State B: cvs_eomee_ccsd/rhfref/singlets: 5/B2u
 Transition dipole moment (a.u.):
   A->B: 0.015257 (X 0.000000, Y -0.015257, Z 0.000000)
   B->A: 0.014878 (X 0.000000, Y -0.014878, Z 0.000000)
 Oscillator strength (a.u.): 0.001609
 Norm of one-particle transition density matrix:
   A->B: 0.897615;   B->A: 0.856689
   ||gamma^AB||*||gamma^BA||: 0.768977

 ------------------------------------------------------------------------------
 State A: ccsd: 0/Ag
 State B: cvs_eomee_ccsd/rhfref/singlets: 1/B3u
 Transition dipole moment (a.u.):
   A->B: 0.000000 (X 0.000000, Y 0.000000, Z 0.000000)
   B->A: 0.000000 (X 0.000000, Y 0.000000, Z 0.000000)
 Oscillator strength (a.u.): 0.000000
 Norm of one-particle transition density matrix:
   A->B: 0.902239;   B->A: 0.866938
   ||gamma^AB||*||gamma^BA||: 0.782185

 ------------------------------------------------------------------------------
 State A: ccsd: 0/Ag
 State B: cvs_eomee_ccsd/rhfref/singlets: 2/B3u
 Transition dipole moment (a.u.):
   A->B: 0.056647 (X -0.056647, Y 0.000000, Z 0.000000)
   B->A: 0.055190 (X -0.055190, Y 0.000000, Z 0.000000)
 Oscillator strength (a.u.): 0.022044
 Norm of one-particle transition density matrix:
   A->B: 0.902209;   B->A: 0.866882
   ||gamma^AB||*||gamma^BA||: 0.782109

 ------------------------------------------------------------------------------
 State A: ccsd: 0/Ag
 State B: cvs_eomee_ccsd/rhfref/singlets: 3/B3u
 Transition dipole moment (a.u.):
   A->B: 0.000000 (X 0.000000, Y 0.000000, Z 0.000000)
   B->A: 0.000000 (X 0.000000, Y 0.000000, Z 0.000000)
 Oscillator strength (a.u.): 0.000000
 Norm of one-particle transition density matrix:
   A->B: 0.897631;   B->A: 0.856553
   ||gamma^AB||*||gamma^BA||: 0.768868

 ------------------------------------------------------------------------------
 State A: ccsd: 0/Ag
 State B: cvs_eomee_ccsd/rhfref/singlets: 4/B3u
 Transition dipole moment (a.u.):
   A->B: 0.015870 (X 0.015870, Y 0.000000, Z 0.000000)
   B->A: 0.015673 (X 0.015673, Y 0.000000, Z 0.000000)
 Oscillator strength (a.u.): 0.001760
 Norm of one-particle transition density matrix:
   A->B: 0.897395;   B->A: 0.856253
   ||gamma^AB||*||gamma^BA||: 0.768397

 ------------------------------------------------------------------------------
 State A: ccsd: 0/Ag
 State B: cvs_eomee_ccsd/rhfref/singlets: 5/B3u
 Transition dipole moment (a.u.):
   A->B: 0.026722 (X 0.026722, Y 0.000000, Z 0.000000)
   B->A: 0.026386 (X 0.026386, Y 0.000000, Z 0.000000)
 Oscillator strength (a.u.): 0.004989
 Norm of one-particle transition density matrix:
   A->B: 0.897492;   B->A: 0.856450
   ||gamma^AB||*||gamma^BA||: 0.768657


 All requested transition properties have been computed

 Transition Properties:   CPU 40.09 s  wall 41.09 s

 Total ccman2 time:   CPU 13845.34 s  wall 15477.51 s


 --------------------------------------------------------------
             Orbital Energies (a.u.) and Symmetries
 --------------------------------------------------------------

 Alpha MOs, Restricted
 -- Occupied --                  
-11.239 -11.239 -11.239 -11.237 -11.237 -11.237  -1.153  -1.017
  1 Ag    1 B3u   1 B2u   2 Ag    1 B1g   2 B3u   3 Ag    3 B3u                
 -1.017  -0.826  -0.826  -0.712  -0.645  -0.621  -0.590  -0.590
  2 B2u   4 Ag    2 B1g   5 Ag    4 B3u   3 B2u   5 B3u   4 B2u                
 -0.502  -0.496  -0.496  -0.337  -0.337
  1 B1u   6 Ag    3 B1g   1 B2g   1 B3g                                        
 -- Virtual --                   
  0.017   0.022   0.022   0.033   0.033   0.034   0.044   0.044
  7 Ag    6 B3u   5 B2u   8 Ag    4 B1g   2 B1u   2 B2g   2 B3g                
  0.049   0.054   0.056   0.056   0.057   0.067   0.067   0.069
  7 B3u   6 B2u   3 B1u   1 Au    9 Ag    8 B3u   7 B2u   3 B2g                
  0.070   0.070   0.084   0.093   0.093   0.103   0.103   0.114
 10 Ag    5 B1g  11 Ag    9 B3u   8 B2u  12 Ag    6 B1g   4 B1u                
  0.114   0.131   0.172   0.186   0.186   0.186   0.195   0.204
  2 Au   10 B3u   5 B1u   4 B2g   3 B3g   9 B2u  13 Ag   14 Ag                 
  0.204   0.225   0.225   0.225   0.237   0.239   0.239   0.247
  7 B1g  11 B3u  10 B2u   5 B2g  15 Ag    6 B1u   3 Au   16 Ag                 
  0.247   0.250   0.250   0.255   0.255   0.281   0.289   0.289
  8 B1g  12 B3u  11 B2u  13 B3u  12 B2u  14 B3u  17 Ag    9 B1g                
  0.303   0.338   0.374   0.413   0.426   0.426   0.454   0.454
 10 B1g  18 Ag    6 B2g  15 B3u  16 B3u  13 B2u  19 Ag   11 B1g                
  0.515   0.515   0.522   0.522   0.621   0.623   0.719   0.739
 20 Ag   12 B1g  17 B3u  14 B2u  21 Ag   15 B2u  18 B3u  19 B3u                
  0.739   0.751   0.752   0.758   0.758   0.785   0.785   0.822
 16 B2u   7 B1u  13 B1g  22 Ag   14 B1g   7 B2g   4 B3g  23 Ag                 
  0.836   0.836   0.891   0.896   0.939   0.939   0.960   0.960
  8 B1u   4 Au   20 B3u   8 B2g  21 B3u  17 B2u  24 Ag   15 B1g                
  0.976   1.016   1.016   1.063   1.063   1.108   1.110   1.110
 25 Ag   22 B3u  18 B2u  26 Ag   16 B1g  23 B3u  24 B3u  19 B2u                
  1.131   1.170   1.204   1.204   1.250   1.324   1.324   1.392
 17 B1g   9 B1u  27 Ag   18 B1g   5 B3g   9 B2g   6 B3g  10 B1u                
  1.392   1.475   1.561   1.720   1.789   1.794   1.794   1.829
  5 Au   25 B3u  28 Ag   20 B2u  29 Ag   26 B3u  21 B2u  10 B2g                
  1.848   1.848   1.910   1.910   1.933   1.933   1.993   2.056
 11 B1u   6 Au   19 B1g  30 Ag   22 B2u  27 B3u  12 B1u  11 B2g                
  2.056   2.109   2.109   2.132   2.239   2.239   2.239   2.253
  7 B3g  31 Ag   20 B1g  23 B2u  21 B1g   8 B3g  12 B2g  28 B3u                
  2.253   2.301   2.350   2.350   2.381   2.381   2.642   2.664
 24 B2u  29 B3u  22 B1g  32 Ag   13 B1u   7 Au   13 B2g   8 Au                 
  2.749   2.749   2.768   2.831   2.831   2.941   2.941   2.977
 33 Ag   23 B1g  34 Ag   30 B3u  25 B2u  26 B2u  31 B3u  35 Ag                 
  2.980   3.031   3.031   3.035   3.044   3.044   3.082   3.208
 32 B3u  33 B3u  27 B2u  34 B3u  36 Ag   24 B1g  14 B1u  14 B2g                
  3.208   3.268   3.302   3.302   3.339   3.339   3.487   3.557
  9 B3g  25 B1g  15 B1u   9 Au   37 Ag   26 B1g  15 B2g  28 B2u                
  3.775   3.775   3.912   3.912   3.938   4.074   4.397   4.397
 27 B1g  38 Ag   35 B3u  29 B2u  39 Ag   36 B3u  40 Ag   28 B1g                
  4.485   4.533   4.533   5.134   5.279   5.461   5.461   5.789
 37 B3u  38 B3u  30 B2u  41 Ag   29 B1g  39 B3u  31 B2u  42 Ag                 
  5.789   6.211  20.654  20.721  20.721  20.862  20.862  21.155
 30 B1g  40 B3u  43 Ag   41 B3u  32 B2u  44 Ag   31 B1g  42 B3u                
 80.225  80.296  80.296  80.416  80.416  80.640 322.068 322.132
 45 Ag   43 B3u  33 B2u  46 Ag   32 B1g  44 B3u  47 Ag   45 B3u                
322.132 322.234 322.234 322.4161431.6381431.6941431.6941431.781
 34 B2u  48 Ag   33 B1g  46 B3u  49 Ag   47 B3u  35 B2u  50 Ag                 
*******1431.9338749.8788749.9238749.9238749.9948749.9948750.117
 34 B1g  48 B3u  51 Ag   49 B3u  36 B2u  52 Ag   35 B1g  50 B3u                

 Beta MOs, Restricted
 -- Occupied --                  
-11.239 -11.239 -11.239 -11.237 -11.237 -11.237  -1.153  -1.017
  1 Ag    1 B3u   1 B2u   2 Ag    1 B1g   2 B3u   3 Ag    3 B3u                
 -1.017  -0.826  -0.826  -0.712  -0.645  -0.621  -0.590  -0.590
  2 B2u   4 Ag    2 B1g   5 Ag    4 B3u   3 B2u   5 B3u   4 B2u                
 -0.502  -0.496  -0.496  -0.337  -0.337
  1 B1u   6 Ag    3 B1g   1 B2g   1 B3g                                        
 -- Virtual --                   
  0.017   0.022   0.022   0.033   0.033   0.034   0.044   0.044
  7 Ag    6 B3u   5 B2u   8 Ag    4 B1g   2 B1u   2 B2g   2 B3g                
  0.049   0.054   0.056   0.056   0.057   0.067   0.067   0.069
  7 B3u   6 B2u   3 B1u   1 Au    9 Ag    8 B3u   7 B2u   3 B2g                
  0.070   0.070   0.084   0.093   0.093   0.103   0.103   0.114
 10 Ag    5 B1g  11 Ag    9 B3u   8 B2u  12 Ag    6 B1g   4 B1u                
  0.114   0.131   0.172   0.186   0.186   0.186   0.195   0.204
  2 Au   10 B3u   5 B1u   4 B2g   3 B3g   9 B2u  13 Ag   14 Ag                 
  0.204   0.225   0.225   0.225   0.237   0.239   0.239   0.247
  7 B1g  11 B3u  10 B2u   5 B2g  15 Ag    6 B1u   3 Au   16 Ag                 
  0.247   0.250   0.250   0.255   0.255   0.281   0.289   0.289
  8 B1g  12 B3u  11 B2u  13 B3u  12 B2u  14 B3u  17 Ag    9 B1g                
  0.303   0.338   0.374   0.413   0.426   0.426   0.454   0.454
 10 B1g  18 Ag    6 B2g  15 B3u  16 B3u  13 B2u  19 Ag   11 B1g                
  0.515   0.515   0.522   0.522   0.621   0.623   0.719   0.739
 20 Ag   12 B1g  17 B3u  14 B2u  21 Ag   15 B2u  18 B3u  19 B3u                
  0.739   0.751   0.752   0.758   0.758   0.785   0.785   0.822
 16 B2u   7 B1u  13 B1g  22 Ag   14 B1g   7 B2g   4 B3g  23 Ag                 
  0.836   0.836   0.891   0.896   0.939   0.939   0.960   0.960
  8 B1u   4 Au   20 B3u   8 B2g  21 B3u  17 B2u  24 Ag   15 B1g                
  0.976   1.016   1.016   1.063   1.063   1.108   1.110   1.110
 25 Ag   22 B3u  18 B2u  26 Ag   16 B1g  23 B3u  24 B3u  19 B2u                
  1.131   1.170   1.204   1.204   1.250   1.324   1.324   1.392
 17 B1g   9 B1u  27 Ag   18 B1g   5 B3g   9 B2g   6 B3g  10 B1u                
  1.392   1.475   1.561   1.720   1.789   1.794   1.794   1.829
  5 Au   25 B3u  28 Ag   20 B2u  29 Ag   26 B3u  21 B2u  10 B2g                
  1.848   1.848   1.910   1.910   1.933   1.933   1.993   2.056
 11 B1u   6 Au   19 B1g  30 Ag   22 B2u  27 B3u  12 B1u  11 B2g                
  2.056   2.109   2.109   2.132   2.239   2.239   2.239   2.253
  7 B3g  31 Ag   20 B1g  23 B2u  21 B1g   8 B3g  12 B2g  28 B3u                
  2.253   2.301   2.350   2.350   2.381   2.381   2.642   2.664
 24 B2u  29 B3u  22 B1g  32 Ag   13 B1u   7 Au   13 B2g   8 Au                 
  2.749   2.749   2.768   2.831   2.831   2.941   2.941   2.977
 33 Ag   23 B1g  34 Ag   30 B3u  25 B2u  26 B2u  31 B3u  35 Ag                 
  2.980   3.031   3.031   3.035   3.044   3.044   3.082   3.208
 32 B3u  33 B3u  27 B2u  34 B3u  36 Ag   24 B1g  14 B1u  14 B2g                
  3.208   3.268   3.302   3.302   3.339   3.339   3.487   3.557
  9 B3g  25 B1g  15 B1u   9 Au   37 Ag   26 B1g  15 B2g  28 B2u                
  3.775   3.775   3.912   3.912   3.938   4.074   4.397   4.397
 27 B1g  38 Ag   35 B3u  29 B2u  39 Ag   36 B3u  40 Ag   28 B1g                
  4.485   4.533   4.533   5.134   5.279   5.461   5.461   5.789
 37 B3u  38 B3u  30 B2u  41 Ag   29 B1g  39 B3u  31 B2u  42 Ag                 
  5.789   6.211  20.654  20.721  20.721  20.862  20.862  21.155
 30 B1g  40 B3u  43 Ag   41 B3u  32 B2u  44 Ag   31 B1g  42 B3u                
 80.225  80.296  80.296  80.416  80.416  80.640 322.068 322.132
 45 Ag   43 B3u  33 B2u  46 Ag   32 B1g  44 B3u  47 Ag   45 B3u                
322.132 322.234 322.234 322.4161431.6381431.6941431.6941431.781
 34 B2u  48 Ag   33 B1g  46 B3u  49 Ag   47 B3u  35 B2u  50 Ag                 
*******1431.9338749.8788749.9238749.9238749.9948749.9948750.117
 34 B1g  48 B3u  51 Ag   49 B3u  36 B2u  52 Ag   35 B1g  50 B3u                
 --------------------------------------------------------------

          Ground-State Mulliken Net Atomic Charges

     Atom                 Charge (a.u.)
  ----------------------------------------
      1 H                     0.192118
      2 C                    -0.192119
      3 C                    -0.192118
      4 H                     0.192118
      5 C                    -0.192118
      6 H                     0.192118
      7 C                    -0.192119
      8 H                     0.192118
      9 C                    -0.192118
     10 H                     0.192118
     11 C                    -0.192118
     12 H                     0.192118
  ----------------------------------------
  Sum of atomic charges =    -0.000000

 -----------------------------------------------------------------
                    Cartesian Multipole Moments
 -----------------------------------------------------------------
    Charge (ESU x 10^10)
                -0.0000
    Dipole Moment (Debye)
         X       0.0000      Y      -0.0000      Z      -0.0000
       Tot       0.0000
    Quadrupole Moments (Debye-Ang)
        XX     -31.9206     XY       0.0000     YY     -31.9206
        XZ      -0.0000     YZ       0.0000     ZZ     -41.2888
    Octopole Moments (Debye-Ang^2)
       XXX      -0.0000    XXY       0.0000    XYY       0.0000
       YYY      -0.0000    XXZ       0.0000    XYZ      -0.0000
       YYZ      -0.0000    XZZ      -0.0000    YZZ      -0.0000
       ZZZ      -0.0000
    Hexadecapole Moments (Debye-Ang^3)
      XXXX    -270.4594   XXXY       0.0000   XXYY     -90.1531
      XYYY       0.0000   YYYY    -270.4594   XXXZ      -0.0000
      XXYZ      -0.0000   XYYZ      -0.0000   YYYZ      -0.0000
      XXZZ     -66.0953   XYZZ      -0.0000   YYZZ     -66.0953
      XZZZ      -0.0000   YZZZ       0.0000   ZZZZ     -52.3832
 -----------------------------------------------------------------
Archival summary:
1\1\Annas-MacBook-Pro-3.local\SP\ProcedureUnspecified\BasisUnspecified\66\SatSep2911:46:222018SatSep2911:46:222018\0\\#,ProcedureUnspecified,BasisUnspecified,\\0,1\C\H,1,1.08144\C,1,1.39359,2,120\H,3,1.08144,1,120,2,-0,0\C,3,1.39359,1,120,2,180,0\H,5,1.08144,3,120,1,-180,0\C,5,1.39359,3,120,1,-0,0\H,7,1.08144,5,120,3,180,0\C,7,1.39359,5,120,3,0,0\H,9,1.08144,7,120,5,180,0\C,9,1.39359,7,120,5,-0,0\H,11,1.08144,9,120,7,180,0\\HF=-230.756847\\@

 Total job time:  15511.06s(wall), 13878.85s(cpu) 
 Sat Sep 29 11:46:22 2018

        *************************************************************
        *                                                           *
        *  Thank you very much for using Q-Chem.  Have a nice day.  *
        *                                                           *
        *************************************************************


