annas-macbook-pro-3.local 100.77.254
Q-Chem Developer Version! Running on 100.77.254.*
                  Welcome to Q-Chem
     A Quantum Leap Into The Future Of Chemistry


 Q-Chem 5.1, Q-Chem, Inc., Pleasanton, CA (2018)

 Yihan Shao,  Zhengting Gan,  E. Epifanovsky,  A. T. B. Gilbert,  M. Wormit,  
 J. Kussmann,  A. W. Lange,  A. Behn,  Jia Deng,  Xintian Feng,  D. Ghosh,  
 M. Goldey,  P. R. Horn,  L. D. Jacobson,  I. Kaliman,  T. Kus,  A. Landau,  
 Jie Liu,  E. I. Proynov,  R. M. Richard,  R. P. Steele,  E. J. Sundstrom,  
 H. L. Woodcock III,  P. M. Zimmerman,  D. Zuev,  B. Albrecht,  E. Alguire,  
 S. A. Baeppler,  D. Barton,  Z. Benda,  Y. A. Bernard,  E. J. Berquist,  
 K. B. Bravaya,  H. Burton,  D. Casanova,  Chun-Min Chang,  Yunqing Chen,  
 A. Chien,  K. D. Closser,  M. P. Coons,  S. Coriani,  S. Dasgupta,  
 A. L. Dempwolff,  M. Diedenhofen,  Hainam Do,  R. G. Edgar,  Po-Tung Fang,  
 S. Faraji,  S. Fatehi,  Qingguo Feng,  K. D. Fenk,  J. Fosso-Tande,  
 Qinghui Ge,  A. Ghysels,  G. Gidofalvi,  J. Gomes,  J. Gonthier,  A. Gunina,  
 M. W. D. Hanson-Heine,  P. H. P. Harbach,  A. W. Hauser,  J. E. Herr,  
 E. G. Hohenstein,  Z. C. Holden,  Kerwin Hui,  T.-C. Jagau,  Hyunjun Ji,  
 B. Kaduk,  K. Khistyaev,  Jaehoon Kim,  P. Klunzinger,  K. Koh,  
 D. Kosenkov,  L. Koulias,  T. Kowalczyk,  C. M. Krauter,  A. Kunitsa,  
 Ka Un Lao,  A. Laurent,  K. V. Lawler,  Joonho Lee,  D. Lefrancois,  
 S. Lehtola,  D. S. Levine,  Yi-Pei Li,  You-Sheng Lin,  Fenglai Liu,  
 E. Livshits,  A. Luenser,  P. Manohar,  E. Mansoor,  S. F. Manzer,  
 Shan-Ping Mao,  Yuezhi Mao,  N. Mardirossian,  A. V. Marenich,  
 T. Markovich,  L. A. Martinez-Martinez,  S. A. Maurer,  N. J. Mayhall,  
 S. C. McKenzie,  J.-M. Mewes,  A. F. Morrison,  J. W. Mullinax,  K. Nanda,  
 T. S. Nguyen-Beck,  R. Olivares-Amaya,  J. A. Parkhill,  T. M. Perrine,  
 F. Plasser,  P. Pokhilko,  S. Prager,  A. Prociuk,  E. Ramos,  D. R. Rehn,  
 F. Rob,  M. Schneider,  N. Sergueev,  S. M. Sharada,  S. Sharma,  
 D. W. Small,  T. Stauch,  T. Stein,  Yu-Chuan Su,  A. J. W. Thom,  
 A. Tkatchenko,  T. Tsuchimochi,  N. M. Tubman,  L. Vogt,  M. L. Vidal,  
 O. Vydrov,  M. A. Watson,  J. Wenzel,  M. de Wergifosse,  T. A. Wesolowski,  
 A. White,  J. Witte,  A. Yamada,  Jun Yang,  K. Yao,  S. Yeganeh,  
 S. R. Yost,  Zhi-Qiang You,  A. Zech,  Igor Ying Zhang,  Xing Zhang,  
 Yan Zhao,  Ying Zhu,  B. R. Brooks,  G. K. L. Chan,  C. J. Cramer,  
 M. S. Gordon,  W. J. Hehre,  A. Klamt,  M. W. Schmidt,  C. D. Sherrill,  
 D. G. Truhlar,  A. Aspuru-Guzik,  R. Baer,  A. T. Bell,  N. A. Besley,  
 Jeng-Da Chai,  R. A. DiStasio Jr.,  A. Dreuw,  B. D. Dunietz,  
 T. R. Furlani,  Chao-Ping Hsu,  Yousung Jung,  Jing Kong,  D. S. Lambrecht,  
 WanZhen Liang,  C. Ochsenfeld,  V. A. Rassolov,  L. V. Slipchenko,  
 J. E. Subotnik,  T. Van Voorhis,  J. M. Herbert,  A. I. Krylov,  
 P. M. W. Gill,  M. Head-Gordon

 Contributors to earlier versions of Q-Chem not listed above: 
 R. D. Adamson,  B. Austin,  J. Baker,  G. J. O. Beran,  K. Brandhorst,  
 S. T. Brown,  E. F. C. Byrd,  A. K. Chakraborty,  C.-L. Cheng,  
 Siu Hung Chien,  D. M. Chipman,  D. L. Crittenden,  H. Dachsel,  
 R. J. Doerksen,  A. D. Dutoi,  L. Fusti-Molnar,  W. A. Goddard III,  
 A. Golubeva-Zadorozhnaya,  S. R. Gwaltney,  G. Hawkins,  A. Heyden,  
 S. Hirata,  G. Kedziora,  F. J. Keil,  C. Kelley,  Jihan Kim,  R. A. King,  
 R. Z. Khaliullin,  P. P. Korambath,  W. Kurlancheek,  A. M. Lee,  M. S. Lee,  
 S. V. Levchenko,  Ching Yeh Lin,  D. Liotard,  R. C. Lochan,  I. Lotan,  
 P. E. Maslen,  N. Nair,  D. P. O'Neill,  D. Neuhauser,  E. Neuscamman,  
 C. M. Oana,  R. Olson,  B. Peters,  R. Peverati,  P. A. Pieniazek,  
 Y. M. Rhee,  J. Ritchie,  M. A. Rohrdanz,  E. Rosta,  N. J. Russ,  
 H. F. Schaefer III,  N. E. Schultz,  N. Shenvi,  A. C. Simmonett,  A. Sodt,  
 D. Stuck,  K. S. Thanthiriwatte,  V. Vanovschi,  Tao Wang,  A. Warshel,  
 C. F. Williams,  Q. Wu,  X. Xu,  W. Zhang

 Please cite Q-Chem as follows:
 Y. Shao et al., Mol. Phys. 113, 184-215 (2015)
 DOI: 10.1080/00268976.2014.952696

 Q-Chem 5.1.0 for Mac (Intel) OS X

 Parts of Q-Chem use Armadillo 8.300.2 (Tropical Shenanigans).
 http://arma.sourceforge.net/

 Q-Chem begins on Tue Sep 11 09:46:18 2018  

Annas-MacBook-Pro-3.local
Host: 0

     Scratch files written to /scratch/qchem5737//
Processing $rem in /Users/annakrylov/.qchemrc.
CC_MEMORY  4000
Core orbitals will be frozen

Checking the input file for inconsistencies... 	...done.

--------------------------------------------------------------
User input:
--------------------------------------------------------------
$comment
Open-shell calculation at the relaxted geometry of the lowest state (B3g)
$end

$molecule
+1 2
 H         1.2392908131   -2.1390691708    0.0000000000
 C         0.7225974533   -1.1894682957    0.0000000000
 C        -0.7225974533   -1.1894682957    0.0000000000
 H        -1.2392908131   -2.1390691708    0.0000000000
 C        -1.4341864916    0.0000000000    0.0000000000
 H        -2.5128824541    0.0000000000    0.0000000000
 C        -0.7225974533    1.1894682957    0.0000000000
 H        -1.2392908131    2.1390691708    0.0000000000
 C         0.7225974533    1.1894682957    0.0000000000
 H         1.2392908131    2.1390691708    0.0000000000
 C         1.4341864916    0.0000000000    0.0000000000
 H         2.5128824541    0.0000000000    0.0000000000
$end

$rem
   JOB_TYPE  =  SP
   BASIS  =  aug-cc-pVDZ
   METHOD  =  EOM-CCSD
   CVS_EE_STATES = [0,0,0,0,0,6,6,6]  Bright transitions only
!   CC_MEMORY = 80000
   cc_trans_prop = 1
$end
--------------------------------------------------------------
 ----------------------------------------------------------------
             Standard Nuclear Orientation (Angstroms)
    I     Atom           X                Y                Z
 ----------------------------------------------------------------
    1      H      -1.2392908131    -2.1390691708    -0.0000000000
    2      C      -0.7225974533    -1.1894682957    -0.0000000000
    3      C       0.7225974533    -1.1894682957     0.0000000000
    4      H       1.2392908131    -2.1390691708     0.0000000000
    5      C       1.4341864916    -0.0000000000     0.0000000000
    6      H       2.5128824541    -0.0000000000     0.0000000000
    7      C       0.7225974533     1.1894682957     0.0000000000
    8      H       1.2392908131     2.1390691708     0.0000000000
    9      C      -0.7225974533     1.1894682957    -0.0000000000
   10      H      -1.2392908131     2.1390691708    -0.0000000000
   11      C      -1.4341864916     0.0000000000    -0.0000000000
   12      H      -2.5128824541     0.0000000000    -0.0000000000
 ----------------------------------------------------------------
 Molecular Point Group                 D2h   NOp =  8
 Largest Abelian Subgroup              D2h   NOp =  8
 Nuclear Repulsion Energy =   202.3007569030 hartrees
 There are       21 alpha and       20 beta electrons
 Requested basis set is aug-cc-pVDZ
 There are 84 shells and 192 basis functions
MEM_TOTAL is adjusted to CC_MEMORY + MEM_STATIC!
 Total memory of 4192MB is distributed as follows: 
   QALLOC including MEM_STATIC uses 192MB
   MEM_STATIC is set to 192MB
   CCMAN JOB total memory use is  4000MB
 Warning: actual memory use might exceed 4192MB

 Total QAlloc Memory Limit    192 MB
 Mega-Array Size       188 MB
 MEM_STATIC part       192 MB

                       Distance Matrix (Angstroms)
             H (  1)   C (  2)   C (  3)   H (  4)   C (  5)   H (  6)
   C (  2)  1.081071
   C (  3)  2.179621  1.445195
   H (  4)  2.478582  2.179621  1.081071
   C (  5)  3.423901  2.463037  1.386071  2.147930
   H (  6)  4.319076  3.447197  2.149408  2.489509  1.078696
   C (  7)  3.863699  2.783510  2.378937  3.368402  1.386071  2.149408
   H (  8)  4.944273  3.863699  3.368402  4.278138  2.147930  2.489509
   C (  9)  3.368402  2.378937  2.783510  3.863699  2.463037  3.447197
   H ( 10)  4.278138  3.368402  3.863699  4.944273  3.423901  4.319076
   C ( 11)  2.147930  1.386071  2.463037  3.423901  2.868373  3.947069
   H ( 12)  2.489509  2.149408  3.447197  4.319076  3.947069  5.025765
             C (  7)   H (  8)   C (  9)   H ( 10)   C ( 11)
   H (  8)  1.081071
   C (  9)  1.445195  2.179621
   H ( 10)  2.179621  2.478582  1.081071
   C ( 11)  2.463037  3.423901  1.386071  2.147930
   H ( 12)  3.447197  4.319076  2.149408  2.489509  1.078696

 A cutoff of  1.0D-14 yielded   3569 shell pairs
 There are     18729 function pairs (     21171 Cartesian)
 Smallest overlap matrix eigenvalue = 2.66E-06

 Scale SEOQF with 1.000000e-01/1.000000e-01/1.000000e-01

 Standard Electronic Orientation quadrupole field applied
 Nucleus-field energy     =     0.0000000057 hartrees
 Guess from superposition of atomic densities
 Warning:  Energy on first SCF cycle will be non-variational
 SAD guess density has 42.000000 electrons

 -----------------------------------------------------------------------
  General SCF calculation program by
  Eric Jon Sundstrom, Paul Horn, Yuezhi Mao, Dmitri Zuev, Alec White,
  David Stuck, Shaama M.S., Shane Yost, Joonho Lee, David Small,
  Daniel Levine, Susi Lehtola, Hugh Burton, Evgeny Epifanovsky
 -----------------------------------------------------------------------
 Hartree-Fock
 A unrestricted SCF calculation will be
 performed using DIIS
 SCF converges when DIIS error is below 1.0e-08
 ---------------------------------------
  Cycle       Energy         DIIS error
 ---------------------------------------
    1    -233.1111255121      2.30e-02  
    2    -230.3410593874      1.77e-03  
    3    -230.4299957991      5.83e-04  
    4    -230.4397011456      2.55e-04  
    5    -230.4422593119      1.01e-04  
    6    -230.4432201502      6.32e-05  
    7    -230.4437468004      2.22e-05  
    8    -230.4437906673      6.90e-06  
    9    -230.4437933814      2.72e-06  
   10    -230.4437938505      6.27e-07  
   11    -230.4437939276      1.60e-07  
   12    -230.4437938514      4.35e-08  
   13    -230.4437938885      1.51e-08  
   14    -230.4437939427      1.09e-08  
   15    -230.4437939337      5.76e-09  Convergence criterion met
 ---------------------------------------
 SCF time:   CPU 48.43s  wall 52.00s 
 SCF   energy in the final basis set =     -230.4437939337
<S^2> =          0.866449324


 ------------------------------------------------------------------------------

   CCMAN2: suite of methods based on coupled cluster
           and equation of motion theories.

   Components:
   * libvmm-1.3-trunk
     by Evgeny Epifanovsky, Ilya Kaliman.
   * libtensor-2.5-trunk
     by Evgeny Epifanovsky, Michael Wormit, Dmitry Zuev, Sam Manzer, 
        Ilya Kaliman.
   * libcc-2.5-trunk
     by Evgeny Epifanovsky, Arik Landau, Tomasz Kus, Kirill Khistyaev, 
        Dmitry Zuev, Prashant Manohar, Xintian Feng, Anna Krylov, 
        Matthew Goldey, Alec White, Thomas Jagau, Kaushik Nanda, 
        Anastasia Gunina, Alexander Kunitsa, Joonho Lee.

   CCMAN original authors:
   Anna I. Krylov, C. David Sherrill, Steven R. Gwaltney,
   Edward F. C. Byrd (2000)
   Sergey V. Levchenko, Lyudmila V. Slipchenko, Tao Wang,
   Ana-Maria C. Cristian (2003)
   Piotr A. Pieniazek, C. Melania Oana, Evgeny Epifanovsky (2007)
   Prashant Manohar (2009)

 ------------------------------------------------------------------------------


 Calculation will run on 2 cores with 4000MB of RAM.


 Alpha MOs, Unrestricted
 -- Occupied --                  
-11.500 -11.500 -11.499 -11.499 -11.444 -11.444  -1.392  -1.262
  1 B2u   1 Ag    1 B3u   1 B1g   2 B3u   2 Ag    3 Ag    2 B2u                
 -1.247  -1.066  -1.048  -0.933  -0.869  -0.852  -0.814  -0.811
  3 B3u   2 B1g   4 Ag    5 Ag    4 B3u   3 B2u   4 B2u   5 B3u                
 -0.747  -0.725  -0.714  -0.607  -0.555
  1 B1u   3 B1g   6 Ag    1 B3g   1 B2g                                        
 -- Virtual --                   
 -0.142  -0.086  -0.078  -0.069  -0.065  -0.046  -0.045  -0.030
  1 Au    7 Ag    2 B1u   5 B2u   6 B3u   4 B1g   8 Ag    3 B1u                
 -0.016  -0.016  -0.003   0.003   0.015   0.025   0.028   0.029
  7 B3u   9 Ag    2 B3g   2 B2g   6 B2u   7 B2u  10 Ag    8 B3u                
  0.033   0.034   0.039   0.043   0.047   0.057   0.061   0.070
  5 B1g  11 Ag    8 B2u   9 B3u   2 Au    4 B1u   3 B2g  10 B3u                
  0.070   0.073   0.138   0.149   0.154   0.156   0.157   0.162
  6 B1g  12 Ag    4 B2g   9 B2u  11 B3u  13 Ag    5 B1u   7 B1g                
  0.168   0.169   0.180   0.192   0.199   0.208   0.227   0.230
  8 B1g  14 Ag    9 B1g  15 Ag   12 B3u  10 B2u  11 B2u  13 B3u                
  0.253   0.258   0.263   0.267   0.273   0.279   0.289   0.321
 14 B3u   3 B3g  12 B2u   5 B2g  15 B3u  10 B1g  16 Ag   17 Ag                 
  0.338   0.349   0.359   0.370   0.373   0.385   0.404   0.406
  3 Au    6 B1u   4 B3g  11 B1g  16 B3u  13 B2u   6 B2g   7 B1u                
  0.407   0.419   0.434   0.441   0.489   0.492   0.492   0.495
 18 Ag   19 Ag   20 Ag   12 B1g   8 B1u  14 B2u   4 Au   17 B3u                
  0.497   0.512   0.519   0.520   0.525   0.559   0.574   0.584
 18 B3u  13 B1g  21 Ag   15 B2u  19 B3u   5 B3g   7 B2g  16 B2u                
  0.604   0.609   0.613   0.623   0.646   0.662   0.662   0.708
 14 B1g  20 B3u  22 Ag    9 B1u  15 B1g  21 B3u  17 B2u   6 B3g                
  0.710   0.714   0.721   0.726   0.739   0.755   0.758   0.764
 16 B1g  23 Ag    8 B2g   5 Au   10 B1u   9 B2g  17 B1g   7 B3g                
  0.785   0.786   0.790   0.796   0.871   0.897   0.901   0.919
 10 B2g  24 Ag   22 B3u  25 Ag   23 B3u   6 Au   24 B3u  18 B2u                
  0.951   0.963   1.003   1.128   1.154   1.187   1.267   1.285
  7 Au   11 B1u  18 B1g  19 B2u  25 B3u   8 B3g  11 B2g  20 B2u                
  1.299   1.312   1.319   1.329   1.350   1.395   1.407   1.414
 26 B3u  21 B2u  26 Ag   12 B1u  19 B1g  27 Ag   27 B3u  22 B2u                
  1.426   1.427   1.431   1.445   1.464   1.483   1.488   1.502
 20 B1g  28 B3u  28 Ag   29 Ag   13 B1u   8 Au    9 B3g  12 B2g                
  1.547   1.563   1.576   1.640   1.663   1.695   1.695   1.714
 30 Ag   23 B2u  21 B1g  31 Ag    9 Au   32 Ag   14 B1u  22 B1g                
  1.723   1.728   1.758   1.775   1.777   1.791   1.883   1.885
 29 B3u  24 B2u  33 Ag   13 B2g  23 B1g  30 B3u  15 B1u  31 B3u                
  1.898   1.904   1.914   1.953   1.959   1.979   2.030   2.032
 25 B2u  10 B3g  14 B2g  15 B2g  24 B1g  11 B3g  34 Ag   32 B3u                
  2.061   2.081   2.128   2.154   2.167   2.174   2.229   2.231
 26 B2u  27 B2u  10 Au   25 B1g  33 B3u  16 B1u  35 Ag   26 B1g                
  2.369   2.447   2.556   2.559   2.574   2.578   2.612   2.741
 11 Au   16 B2g  34 B3u  27 B1g  28 B2u  36 Ag   37 Ag   35 B3u                
  2.762   2.773   2.883   2.899   2.908   2.909   3.152   3.306
 36 B3u  29 B2u  38 Ag   30 B2u  28 B1g  37 B3u  29 B1g  30 B1g                
  3.329   3.631   4.547
 39 Ag   38 B3u  39 B3u                                                        

 Beta MOs, Unrestricted
 -- Occupied --                  
-11.492 -11.492 -11.491 -11.491 -11.451 -11.451  -1.369  -1.250
  1 Ag    1 B2u   1 B3u   1 B1g   2 B3u   2 Ag    3 Ag    3 B3u                
 -1.211  -1.045  -1.042  -0.929  -0.862  -0.845  -0.813  -0.804
  2 B2u   2 B1g   4 Ag    5 Ag    4 B3u   3 B2u   5 B3u   4 B2u                
 -0.723  -0.710  -0.668  -0.574
  3 B1g   6 Ag    1 B1u   1 B2g                                                
 -- Virtual --                   
 -0.237  -0.085  -0.068  -0.065  -0.061  -0.048  -0.045  -0.045
  1 B3g   7 Ag    5 B2u   6 B3u   2 B1u   1 Au    4 B1g   8 Ag                 
 -0.023  -0.016  -0.013   0.003   0.008   0.015   0.027   0.028
  3 B1u   7 B3u   9 Ag    2 B2g   2 B3g   6 B2u   7 B2u   8 B3u                
  0.030   0.034   0.035   0.040   0.042   0.060   0.063   0.066
 10 Ag   11 Ag    5 B1g   8 B2u   9 B3u   4 B1u   2 Au    3 B2g                
  0.070   0.070   0.073   0.154   0.157   0.160   0.162   0.162
  6 B1g  10 B3u  12 Ag   11 B3u   9 B2u  13 Ag    5 B1u   7 B1g                
  0.166   0.170   0.170   0.190   0.192   0.200   0.210   0.228
  4 B2g   8 B1g  14 Ag    9 B1g  15 Ag   12 B3u  10 B2u  11 B2u                
  0.233   0.259   0.266   0.267   0.267   0.270   0.282   0.288
 13 B3u  14 B3u   5 B2g  12 B2u   3 B3g  15 B3u  10 B1g  16 Ag                 
  0.327   0.345   0.350   0.371   0.377   0.385   0.397   0.405
 17 Ag    3 Au    6 B1u   4 B3g  16 B3u  11 B1g  13 B2u  18 Ag                 
  0.412   0.415   0.420   0.439   0.441   0.494   0.495   0.499
  6 B2g   7 B1u  19 Ag   20 Ag   12 B1g  17 B3u   8 B1u  14 B2u                
  0.504   0.504   0.517   0.521   0.524   0.528   0.574   0.581
  4 Au   18 B3u  13 B1g  21 Ag   15 B2u  19 B3u   7 B2g   5 B3g                
  0.585   0.608   0.611   0.614   0.643   0.649   0.663   0.667
 16 B2u  14 B1g  20 B3u  22 Ag    9 B1u  15 B1g  21 B3u  17 B2u                
  0.712   0.715   0.720   0.728   0.738   0.746   0.762   0.770
 16 B1g  23 Ag    8 B2g   6 B3g   5 Au   10 B1u  17 B1g   9 B2g                
  0.780   0.785   0.787   0.795   0.799   0.873   0.898   0.902
 10 B2g   7 B3g  24 Ag   22 B3u  25 Ag   23 B3u   6 Au   24 B3u                
  0.920   0.963   0.974   1.004   1.131   1.154   1.206   1.274
 18 B2u  11 B1u   7 Au   18 B1g  19 B2u  25 B3u   8 B3g  11 B2g                
  1.292   1.300   1.322   1.322   1.339   1.351   1.402   1.405
 20 B2u  26 B3u  26 Ag   21 B2u  12 B1u  19 B1g  27 Ag   27 B3u                
  1.426   1.429   1.434   1.434   1.443   1.487   1.488   1.502
 22 B2u  28 B3u  20 B1g  28 Ag   29 Ag    8 Au   13 B1u  12 B2g                
  1.507   1.553   1.566   1.581   1.653   1.678   1.694   1.697
  9 B3g  30 Ag   23 B2u  21 B1g  31 Ag    9 Au   14 B1u  32 Ag                 
  1.716   1.725   1.745   1.759   1.779   1.780   1.790   1.885
 22 B1g  29 B3u  24 B2u  33 Ag   23 B1g  13 B2g  30 B3u  31 B3u                
  1.888   1.901   1.912   1.918   1.969   1.970   1.985   2.029
 15 B1u  25 B2u  10 B3g  14 B2g  15 B2g  24 B1g  11 B3g  34 Ag                 
  2.033   2.063   2.081   2.139   2.155   2.173   2.175   2.231
 32 B3u  26 B2u  27 B2u  10 Au   25 B1g  33 B3u  16 B1u  35 Ag                 
  2.233   2.380   2.453   2.557   2.563   2.580   2.582   2.611
 26 B1g  11 Au   16 B2g  34 B3u  27 B1g  36 Ag   28 B2u  37 Ag                 
  2.741   2.763   2.775   2.885   2.905   2.910   2.914   3.153
 35 B3u  36 B3u  29 B2u  38 Ag   30 B2u  37 B3u  28 B1g  29 B1g                
  3.312   3.329   3.633   4.550
 30 B1g  39 Ag   38 B3u  39 B3u                                                

 Occupation and symmetry of molecular orbitals

 Point group: D2h (8 irreducible representations).

                           Ag   B1g  B2g  B3g  Au   B1u  B2u  B3u   All 
 ------------------------------------------------------------------------
 All molecular orbitals:
  - Alpha                  39   30   16   11   11   16   30   39    192 
  - Beta                   39   30   16   11   11   16   30   39    192 
 ------------------------------------------------------------------------
 Alpha orbitals:
  - Frozen occupied        2    1    0    0    0    0    1    2     6   
  - Active occupied        4    2    1    1    0    1    3    3     15  
  - Active virtual         33   27   15   10   11   15   26   34    171 
  - Frozen virtual         0    0    0    0    0    0    0    0     0   
 ------------------------------------------------------------------------
 Beta orbitals:
  - Frozen occupied        2    1    0    0    0    0    1    2     6   
  - Active occupied        4    2    1    0    0    1    3    3     14  
  - Active virtual         33   27   15   11   11   15   26   34    172 
  - Frozen virtual         0    0    0    0    0    0    0    0     0   
 ------------------------------------------------------------------------

 Import integrals:   CPU 0.00 s  wall 0.00 s

 Import integrals:   CPU 165.33 s  wall 135.95 s

 MP2 amplitudes:   CPU 5.62 s  wall 3.75 s

           CCSD T amplitudes will be solved using DIIS.

           Start     Size      MaxIter   EConv     TConv     
           3         7         100       1.00e-06  1.00e-04  
 ------------------------------------------------------------------------------
           Energy (a.u.)   Ediff      Tdiff       Comment
 ------------------------------------------------------------------------------
          -231.18886058                           
     1    -231.21377803   2.49e-02   8.74e-01     
     2    -231.23523931   2.15e-02   1.08e-01     
     3    -231.23810465   2.87e-03   3.72e-02     
     4    -231.24108989   2.99e-03   1.50e-02     Switched to DIIS steps.
     5    -231.24238861   1.30e-03   1.18e-02     
     6    -231.24256758   1.79e-04   4.17e-03     
     7    -231.24258706   1.95e-05   1.08e-03     
     8    -231.24260064   1.36e-05   4.71e-04     
     9    -231.24260186   1.22e-06   1.03e-04     
    10    -231.24260214   2.86e-07   3.54e-05     
 ------------------------------------------------------------------------------
          -231.24260214                           CCSD T converged.

 SCF energy                 = -230.44379393
 MP2 energy                 = -231.18886058
 CCSD correlation energy     =   -0.79880821
 CCSD total energy           = -231.24260214

 CCSD  T1^2 = 0.0239  T2^2 = 0.3274  Leading amplitudes:

 Amplitude    Orbitals with energies
 -0.0913       1 (B1u) B                 ->    2 (B1u) B                  
              -0.6676                         -0.0615                     
  0.0525       1 (B2g) B                 ->    4 (B2g) B                  
              -0.5739                          0.1658                     
  0.0418       1 (B1u) A                 ->    2 (B1u) A                  
              -0.7474                         -0.0782                     
 -0.0401       1 (B1u) B                 ->    4 (B1u) B                  
              -0.6676                          0.0598                     

 Amplitude    Orbitals with energies
  0.0649       1 (B2g) A     1 (B1u) B   ->    1 (Au) A      1 (B3g) B    
              -0.5553       -0.6676           -0.1417       -0.2371       
 -0.0649       1 (B2g) A     1 (B1u) B   ->    1 (B3g) B     1 (Au) A     
              -0.5553       -0.6676           -0.2371       -0.1417       
 -0.0649       1 (B1u) B     1 (B2g) A   ->    1 (Au) A      1 (B3g) B    
              -0.6676       -0.5553           -0.1417       -0.2371       
  0.0649       1 (B1u) B     1 (B2g) A   ->    1 (B3g) B     1 (Au) A     
              -0.6676       -0.5553           -0.2371       -0.1417       

 Computing CCSD intermediates for later calculations
 Finished.

           CCSD Lambda amplitudes will be solved using DIIS.
           Start     Size      MaxIter   EConv     LConv     
           3         7         100       1.00e-06  1.00e-04  
 ------------------------------------------------------------------------------
            Enorm      Ldiff       Comment
 ------------------------------------------------------------------------------
     1     5.49e-02   4.50e-02     
     2     1.01e-02   2.71e-03     
     3     4.40e-03   2.02e-03     
     4     1.86e-03   8.82e-04     Switched to DIIS steps.
     5     6.37e-04   5.21e-04     
     6     2.33e-04   1.47e-04     
     7     9.24e-05   4.35e-05     
     8     3.05e-05   1.82e-05     
     9     1.02e-05   5.78e-06     
    10     3.75e-06   1.67e-06     
    11     1.14e-06   3.84e-07     
    12     4.36e-07   5.87e-08     
 ------------------------------------------------------------------------------
                                   CCSD Lambda converged.

 CCSD calculation:   CPU 976.10 s  wall 602.53 s

        Solving for CVS-EOMEE-CCSD B1u transitions.

        CVS-EOMEE-CCSD/MP2 right amplitudes will be solved using Davidson.
        Amplitudes will be solved using standard  algorithm.
     Hard-coded thresholds: 
     LinDepThresh=1.00e-15  NormThresh=1.00e-06  ReorthogonThresh=1.00e-02

      Roots     MaxVec    MaxIter   Precond   Conv      Shift    
      6         120       60        1         1.00e-05  0.00e+00  
 ------------------------------------------------------------------------------
      Iter ConvRoots NVecs ResNorm Current eigenvalues (eV)
 ------------------------------------------------------------------------------
      0    0      6     8.52e-01   297.4615   300.7688   301.1551   302.5834   304.5067   306.2195   
      1    0      12    1.13e+00   291.2609   294.9891   295.1370   296.5779   298.3266   300.6319   
      2    0      18    3.23e-02   284.8942   288.7560   288.9609   290.0109   291.5353   293.9538   
      3    0      24    1.12e-02   284.3849   288.0193   288.4298   289.2901   291.0466   293.7355   
      4    0      30    6.81e-03   284.1677   287.6270   288.2273   288.9006   290.8510   293.6783   
      5    0      36    2.71e-02   284.0827   287.5317   288.1613   288.7654   290.7568   293.0102   
Found complex roots...
      6    0      42    6.62e-03   284.0592   287.5177   288.1426   288.7493   290.7187   290.9147   
      7    0      48    3.01e-03   284.0490   287.5116   288.1334   288.7436   290.1885   290.7402   
      8    0      54    8.52e-04   284.0469   287.5086   288.1298   288.7412   289.9445   290.7351   
      9    2      60    3.34e-04   284.0465*  287.5078*  288.1288   288.7408   289.8495   290.7338   
Found complex roots...
      10   3      64    1.56e-04   284.0467*  287.5078*  288.1292   288.7411*  289.8276   290.7332   
Found complex roots...
      11   5      67    1.21e-04   284.0469*  287.5078*  288.1293*  288.7411*  289.8136   290.7332*  
Found complex roots...
      12   5      68    8.42e-05   284.0469*  287.5078*  288.1291*  288.7411*  289.8058   290.7331*  
Found complex roots...
      13   5      69    3.32e-05   284.0469*  287.5078*  288.1290*  288.7411*  289.7963   290.7330*  
Found complex roots...
      14   5      70    1.10e-05   284.0469*  287.5078*  288.1290*  288.7411*  289.7953   290.7329*  
Found complex roots...
      15   5      71    4.49e-06   284.0469*  287.5078*  288.1290*  288.7411*  289.7955   290.7328*  
Found complex roots...
      16   6      72    3.12e-06   284.0469*  287.5078*  288.1290*  288.7411*  289.7954*  290.7327*  

     Davidson procedure converged

 EOMEE transition 1/B1u
 Total energy = -220.80407049 a.u.  Excitation energy = 284.0469 eV.
 R0^2 = 0.0000  R1^2 = 0.8573  R2_CCVV^2 = 0.0004  R2_COVV^2 = 0.0711  Res^2 = 5.74e-07
 Conv-d = yes

 Amplitude    Transitions between orbitals
  0.8235       1 (B2u) B                 ->    1 (B3g) B                  
  0.2159       1 (B1g) B                 ->    1 (Au) B                   
  0.1607       1 (Ag) B                  ->    2 (B1u) B                  
 -0.1241       1 (B2u) B                 ->    2 (B3g) B                  
 -0.1175       1 (B3u) B                 ->    4 (B2g) B                  
  0.1093       1 (B1g) B                 ->    2 (Au) B                   

              Summary of significant orbitals:

               Number  Type             Irrep      Energy
               1       Occ  Beta        1 (Ag)    -11.4917
               4       Occ  Beta        1 (B1g)    -11.4908
               2       Occ  Beta        1 (B2u)    -11.4916
               3       Occ  Beta        1 (B3u)    -11.4908
               53      Vir  Beta        4 (B2g)      0.1658
               21      Vir  Beta        1 (B3g)     -0.2371
               33      Vir  Beta        2 (B3g)      0.0080
               26      Vir  Beta        1 (Au)     -0.0480
               43      Vir  Beta        2 (Au)      0.0631
               25      Vir  Beta        2 (B1u)     -0.0615


 EOMEE transition 2/B1u
 Total energy = -220.67688450 a.u.  Excitation energy = 287.5078 eV.
 R0^2 = 0.0000  R1^2 = 0.8661  R2_CCVV^2 = 0.0004  R2_COVV^2 = 0.0667  Res^2 = 5.33e-06
 Conv-d = yes

 Amplitude    Transitions between orbitals
 -0.7352       2 (Ag) A                  ->    2 (B1u) A                  
  0.2691       2 (B3u) A                 ->    4 (B2g) A                  
  0.2538       2 (Ag) B                  ->    2 (B1u) B                  
  0.2269       2 (Ag) A                  ->    4 (B1u) A                  
 -0.1773       2 (B3u) A                 ->    3 (B2g) A                  
 -0.1033       2 (B3u) B                 ->    4 (B2g) B                  
  0.1029       2 (Ag) A                  ->    8 (B1u) A                  
  0.1002       2 (Ag) B                  ->    4 (B1u) B                  

              Summary of significant orbitals:

               Number  Type             Irrep      Energy
               6       Occ  Alpha       2 (Ag)    -11.4442
               5       Occ  Alpha       2 (B3u)    -11.4442
               6       Occ  Beta        2 (Ag)    -11.4513
               5       Occ  Beta        2 (B3u)    -11.4513
               44      Vir  Alpha       3 (B2g)      0.0609
               48      Vir  Alpha       4 (B2g)      0.1383
               24      Vir  Alpha       2 (B1u)     -0.0782
               43      Vir  Alpha       4 (B1u)      0.0568
               82      Vir  Alpha       8 (B1u)      0.4894
               53      Vir  Beta        4 (B2g)      0.1658
               25      Vir  Beta        2 (B1u)     -0.0615
               42      Vir  Beta        4 (B1u)      0.0598


 EOMEE transition 3/B1u
 Total energy = -220.65405733 a.u.  Excitation energy = 288.1290 eV.
 R0^2 = 0.0000  R1^2 = 0.8344  R2_CCVV^2 = 0.0004  R2_COVV^2 = 0.0826  Res^2 = 1.62e-07
 Conv-d = yes

 Amplitude    Transitions between orbitals
  0.7828       1 (B1g) A                 ->    1 (Au) A                   
  0.2562       1 (Ag) A                  ->    2 (B1u) A                  
 -0.2017       1 (B3u) A                 ->    4 (B2g) A                  
  0.1363       1 (B2u) B                 ->    1 (B3g) B                  
  0.1254       1 (B3u) A                 ->    3 (B2g) A                  
 -0.1245       1 (B1g) A                 ->    2 (Au) A                   

              Summary of significant orbitals:

               Number  Type             Irrep      Energy
               2       Occ  Alpha       1 (Ag)    -11.5002
               4       Occ  Alpha       1 (B1g)    -11.4992
               3       Occ  Alpha       1 (B3u)    -11.4993
               2       Occ  Beta        1 (B2u)    -11.4916
               44      Vir  Alpha       3 (B2g)      0.0609
               48      Vir  Alpha       4 (B2g)      0.1383
               22      Vir  Alpha       1 (Au)     -0.1417
               42      Vir  Alpha       2 (Au)      0.0473
               24      Vir  Alpha       2 (B1u)     -0.0782
               21      Vir  Beta        1 (B3g)     -0.2371


 EOMEE transition 4/B1u
 Total energy = -220.63156068 a.u.  Excitation energy = 288.7411 eV.
 R0^2 = 0.0000  R1^2 = 0.8313  R2_CCVV^2 = 0.0005  R2_COVV^2 = 0.0841  Res^2 = 2.92e-06
 Conv-d = yes

 Amplitude    Transitions between orbitals
 -0.7317       2 (Ag) B                  ->    2 (B1u) B                  
 -0.2593       2 (Ag) B                  ->    4 (B1u) B                  
 -0.2591       2 (Ag) A                  ->    2 (B1u) A                  
  0.2471       2 (B3u) B                 ->    4 (B2g) B                  
  0.1747       2 (Ag) B                  ->    3 (B1u) B                  
  0.1211       2 (B3u) B                 ->    3 (B2g) B                  

              Summary of significant orbitals:

               Number  Type             Irrep      Energy
               6       Occ  Alpha       2 (Ag)    -11.4442
               6       Occ  Beta        2 (Ag)    -11.4513
               5       Occ  Beta        2 (B3u)    -11.4513
               24      Vir  Alpha       2 (B1u)     -0.0782
               44      Vir  Beta        3 (B2g)      0.0665
               53      Vir  Beta        4 (B2g)      0.1658
               25      Vir  Beta        2 (B1u)     -0.0615
               29      Vir  Beta        3 (B1u)     -0.0233
               42      Vir  Beta        4 (B1u)      0.0598


 EOMEE transition 5/B1u
 Total energy = -220.59281681 a.u.  Excitation energy = 289.7954 eV.
 R0^2 = 0.0000  R1^2 = 0.8007  R2_CCVV^2 = 0.0004  R2_COVV^2 = 0.0994  Res^2 = 4.01e-06
 Conv-d = yes

 Amplitude    Transitions between orbitals
  0.6697       1 (B1g) B                 ->    1 (Au) B                   
 -0.2835       1 (B2u) B                 ->    1 (B3g) B                  
  0.2660       1 (B1g) B                 ->    2 (Au) B                   
  0.2345       1 (Ag) B                  ->    2 (B1u) B                  
 -0.2138       1 (B3u) B                 ->    4 (B2g) B                  
  0.1756       1 (B1g) A                 ->    1 (Au) A                   
 -0.1056       1 (B3u) B                 ->    3 (B2g) B                  
 -0.1041       1 (Ag) B                  ->    3 (B1u) B                  

              Summary of significant orbitals:

               Number  Type             Irrep      Energy
               4       Occ  Alpha       1 (B1g)    -11.4992
               1       Occ  Beta        1 (Ag)    -11.4917
               4       Occ  Beta        1 (B1g)    -11.4908
               2       Occ  Beta        1 (B2u)    -11.4916
               3       Occ  Beta        1 (B3u)    -11.4908
               22      Vir  Alpha       1 (Au)     -0.1417
               44      Vir  Beta        3 (B2g)      0.0665
               53      Vir  Beta        4 (B2g)      0.1658
               21      Vir  Beta        1 (B3g)     -0.2371
               26      Vir  Beta        1 (Au)     -0.0480
               43      Vir  Beta        2 (Au)      0.0631
               25      Vir  Beta        2 (B1u)     -0.0615
               29      Vir  Beta        3 (B1u)     -0.0233


 EOMEE transition 6/B1u
 Total energy = -220.55837094 a.u.  Excitation energy = 290.7327 eV.
 R0^2 = 0.0000  R1^2 = 0.7513  R2_CCVV^2 = 0.0004  R2_COVV^2 = 0.1241  Res^2 = 5.72e-06
 Conv-d = yes

 Amplitude    Transitions between orbitals
 -0.7732       1 (Ag) A                  ->    2 (B1u) A                  
  0.2874       1 (B1g) A                 ->    1 (Au) A                   
  0.1800       1 (Ag) A                  ->    4 (B1u) A                  
  0.1212       1 (B3u) A                 ->    4 (B2g) A                  

              Summary of significant orbitals:

               Number  Type             Irrep      Energy
               2       Occ  Alpha       1 (Ag)    -11.5002
               4       Occ  Alpha       1 (B1g)    -11.4992
               3       Occ  Alpha       1 (B3u)    -11.4993
               48      Vir  Alpha       4 (B2g)      0.1383
               22      Vir  Alpha       1 (Au)     -0.1417
               24      Vir  Alpha       2 (B1u)     -0.0782
               43      Vir  Alpha       4 (B1u)      0.0568


      CVS-EOM-CCSD/MP2 left amplitudes will be solved using Davidson.
        Amplitudes will be solved using MOM  algorithm.
     Hard-coded thresholds: 
     LinDepThresh=1.00e-15  NormThresh=1.00e-06  ReorthogonThresh=1.00e-02

      Roots     MaxVec    MaxIter   Precond   Conv      Shift    
      6         120       60        1         1.00e-05  0.00e+00  
 ------------------------------------------------------------------------------
      Iter ConvRoots NVecs ResNorm Current eigenvalues (eV)
 ------------------------------------------------------------------------------
      0    0      6     2.07e-02   284.0469   287.5078   288.1290   288.7411   289.7954   290.7327   
      1    0      12    4.24e-03   284.0469   287.5080   288.1289   288.7410   289.7954   290.7326   
      2    0      18    5.39e-04   284.0469   287.5081   288.1289   288.7410   289.7955   290.7326   
      3    0      24    1.22e-04   284.0469   287.5080   288.1289   288.7409   289.7955   290.7325   
      4    0      30    3.00e-05   284.0469   287.5080   288.1289   288.7409   289.7955   290.7325   
      5    4      36    1.24e-05   284.0469*  287.5079*  288.1289*  288.7409*  289.7956   290.7325   
      6    5      38    8.83e-06   284.0469*  287.5079*  288.1289*  288.7409*  289.7956   290.7325*  
      7    5      39    6.21e-06   284.0469*  287.5079*  288.1289*  288.7409*  289.7956   290.7325*  
      8    6      40    5.14e-06   284.0469*  287.5079*  288.1289*  288.7409*  289.7956*  290.7325*  

     Davidson procedure converged

        Solving for CVS-EOMEE-CCSD B2u transitions.

        CVS-EOMEE-CCSD/MP2 right amplitudes will be solved using Davidson.
        Amplitudes will be solved using standard  algorithm.
     Hard-coded thresholds: 
     LinDepThresh=1.00e-15  NormThresh=1.00e-06  ReorthogonThresh=1.00e-02

      Roots     MaxVec    MaxIter   Precond   Conv      Shift    
      6         120       60        1         1.00e-05  0.00e+00  
 ------------------------------------------------------------------------------
      Iter ConvRoots NVecs ResNorm Current eigenvalues (eV)
 ------------------------------------------------------------------------------
      0    0      6     7.77e-01   306.2561   306.4371   306.4736   306.6339   307.3368   307.5221   
      1    0      12    1.13e+00   300.7030   300.9214   300.9511   301.1874   301.7030   301.9276   
      2    0      18    1.93e-02   293.9617   294.0587   294.1687   294.3206   294.8937   295.1038   
      3    0      24    4.90e-03   293.6455   293.7055   293.8729   293.8945   294.6259   294.8233   
      4    0      30    8.79e-03   293.3776   293.5938   293.6151   293.7861   294.5007   294.6989   
      5    0      36    5.37e-03   293.0020   293.3227   293.4261   293.6183   294.2189   294.4630   
      6    0      42    2.48e-03   292.7965   293.1636   293.3701   293.5566   294.0902   294.3289   
      7    0      48    1.03e-03   292.7376   293.1194   293.3649   293.5503   294.0579   294.2934   
      8    0      54    9.89e-04   292.6512   293.0724   293.3595   293.5454   294.0339   294.2736   
      9    0      60    7.02e-04   292.5809   293.0314   293.3569   293.5432   294.0169   294.2574   
      10   0      66    1.41e-03   292.5528   293.0055   293.3565   293.5428   294.0135   294.2404   
      11   2      72    5.38e-04   292.5391   292.9913   293.3561*  293.5424*  294.0097   294.1535   
      12   3      76    3.93e-04   292.5315   292.9832   293.3562*  293.5423*  294.0100*  294.0926   
      13   3      79    3.61e-04   292.5269   292.9791   293.3562*  293.5423*  294.0100*  294.0382   
      14   3      82    2.85e-04   292.5254   292.9762   293.3562*  293.5423*  293.9921   294.0100*  
      15   3      85    2.29e-04   292.5250   292.9752   293.3562*  293.5423*  293.9577   294.0100*  
      16   4      88    1.18e-04   292.5244*  292.9740   293.3562*  293.5423*  293.9288   294.0100*  
      17   4      90    6.86e-05   292.5242*  292.9739   293.3562*  293.5423*  293.9177   294.0100*  
      18   5      92    3.96e-05   292.5243*  292.9741*  293.3562*  293.5423*  293.9093   294.0100*  
Found complex roots...
      19   5      93    2.88e-05   292.5242*  292.9742*  293.3562*  293.5423*  293.9060   294.0100*  
      20   5      94    2.49e-05   292.5242*  292.9741*  293.3562*  293.5423*  293.9013   294.0100*  
      21   5      95    2.27e-05   292.5242*  292.9741*  293.3562*  293.5423*  293.9004   294.0100*  
      22   5      96    2.07e-05   292.5242*  292.9741*  293.3562*  293.5423*  293.8958   294.0100*  
      23   5      97    1.26e-05   292.5242*  292.9741*  293.3562*  293.5423*  293.8940   294.0099*  
      24   5      98    8.08e-06   292.5242*  292.9742*  293.3562*  293.5423*  293.8923   294.0099*  
      25   5      99    5.76e-06   292.5242*  292.9741*  293.3562*  293.5423*  293.8924   294.0099*  
      26   6      100   4.57e-06   292.5242*  292.9741*  293.3562*  293.5423*  293.8920*  294.0099*  

     Davidson procedure converged

 EOMEE transition 1/B2u
 Total energy = -220.49253406 a.u.  Excitation energy = 292.5242 eV.
 R0^2 = 0.0000  R1^2 = 0.8202  R2_CCVV^2 = 0.0003  R2_COVV^2 = 0.0897  Res^2 = 5.60e-07
 Conv-d = yes

 Amplitude    Transitions between orbitals
 -0.4601       1 (B2u) B                 ->    7 (Ag) B                   
 -0.2780       1 (Ag) B                  ->    5 (B2u) B                  
  0.2695       1 (B2u) A                 ->    7 (Ag) A                   
 -0.2552       1 (B2u) B                 ->    10 (Ag) B                  
 -0.1743       1 (B1g) B                 ->    6 (B3u) B                  
 -0.1721       1 (Ag) A                  ->    5 (B2u) A                  
  0.1585       1 (B2u) A                 ->    10 (Ag) A                  
  0.1506       1 (Ag) B                  ->    8 (B2u) B                  
  0.1449       1 (B3u) B                 ->    4 (B1g) B                  
 -0.1265       1 (B2u) B                 ->    13 (Ag) B                  
  0.1230       1 (Ag) B                  ->    7 (B2u) B                  
  0.1084       1 (B1g) B                 ->    9 (B3u) B                  
  0.1074       1 (B1g) A                 ->    6 (B3u) A                  
 -0.1031       1 (Ag) A                  ->    8 (B2u) A                  
  0.1015       1 (B3u) B                 ->    5 (B1g) B                  
 -0.1011       1 (B3u) A                 ->    4 (B1g) A                  

              Summary of significant orbitals:

               Number  Type             Irrep      Energy
               2       Occ  Alpha       1 (Ag)    -11.5002
               4       Occ  Alpha       1 (B1g)    -11.4992
               1       Occ  Alpha       1 (B2u)    -11.5003
               3       Occ  Alpha       1 (B3u)    -11.4993
               1       Occ  Beta        1 (Ag)    -11.4917
               4       Occ  Beta        1 (B1g)    -11.4908
               2       Occ  Beta        1 (B2u)    -11.4916
               3       Occ  Beta        1 (B3u)    -11.4908
               23      Vir  Alpha       7 (Ag)     -0.0861
               36      Vir  Alpha      10 (Ag)      0.0283
               27      Vir  Alpha       4 (B1g)     -0.0461
               25      Vir  Alpha       5 (B2u)     -0.0692
               40      Vir  Alpha       8 (B2u)      0.0387
               26      Vir  Alpha       6 (B3u)     -0.0653
               22      Vir  Beta        7 (Ag)     -0.0855
               37      Vir  Beta       10 (Ag)      0.0297
               50      Vir  Beta       13 (Ag)      0.1596
               27      Vir  Beta        4 (B1g)     -0.0455
               39      Vir  Beta        5 (B1g)      0.0346
               23      Vir  Beta        5 (B2u)     -0.0684
               35      Vir  Beta        7 (B2u)      0.0275
               40      Vir  Beta        8 (B2u)      0.0404
               24      Vir  Beta        6 (B3u)     -0.0654
               41      Vir  Beta        9 (B3u)      0.0425


 EOMEE transition 2/B2u
 Total energy = -220.47600104 a.u.  Excitation energy = 292.9741 eV.
 R0^2 = 0.0000  R1^2 = 0.8072  R2_CCVV^2 = 0.0004  R2_COVV^2 = 0.0962  Res^2 = 3.55e-06
 Conv-d = yes

 Amplitude    Transitions between orbitals
 -0.5014       1 (B2u) A                 ->    7 (Ag) A                   
 -0.3507       1 (B2u) B                 ->    7 (Ag) B                   
  0.2703       1 (Ag) A                  ->    5 (B2u) A                  
 -0.2493       1 (B2u) A                 ->    10 (Ag) A                  
 -0.1787       1 (B1g) A                 ->    6 (B3u) A                  
 -0.1704       1 (Ag) B                  ->    5 (B2u) B                  
 -0.1602       1 (B2u) B                 ->    10 (Ag) B                  
  0.1412       1 (Ag) A                  ->    8 (B2u) A                  
  0.1315       1 (B3u) A                 ->    4 (B1g) A                  
 -0.1185       1 (B2u) A                 ->    13 (Ag) A                  
 -0.1138       1 (B1g) B                 ->    6 (B3u) B                  
  0.1030       1 (B1g) A                 ->    9 (B3u) A                  
 -0.1019       1 (Ag) A                  ->    7 (B2u) A                  

              Summary of significant orbitals:

               Number  Type             Irrep      Energy
               2       Occ  Alpha       1 (Ag)    -11.5002
               4       Occ  Alpha       1 (B1g)    -11.4992
               1       Occ  Alpha       1 (B2u)    -11.5003
               3       Occ  Alpha       1 (B3u)    -11.4993
               1       Occ  Beta        1 (Ag)    -11.4917
               4       Occ  Beta        1 (B1g)    -11.4908
               2       Occ  Beta        1 (B2u)    -11.4916
               23      Vir  Alpha       7 (Ag)     -0.0861
               36      Vir  Alpha      10 (Ag)      0.0283
               51      Vir  Alpha      13 (Ag)      0.1561
               27      Vir  Alpha       4 (B1g)     -0.0461
               25      Vir  Alpha       5 (B2u)     -0.0692
               35      Vir  Alpha       7 (B2u)      0.0250
               40      Vir  Alpha       8 (B2u)      0.0387
               26      Vir  Alpha       6 (B3u)     -0.0653
               41      Vir  Alpha       9 (B3u)      0.0426
               22      Vir  Beta        7 (Ag)     -0.0855
               37      Vir  Beta       10 (Ag)      0.0297
               23      Vir  Beta        5 (B2u)     -0.0684
               24      Vir  Beta        6 (B3u)     -0.0654


 EOMEE transition 3/B2u
 Total energy = -220.46196080 a.u.  Excitation energy = 293.3562 eV.
 R0^2 = 0.0000  R1^2 = 0.8068  R2_CCVV^2 = 0.0004  R2_COVV^2 = 0.0964  Res^2 = 3.00e-06
 Conv-d = yes

 Amplitude    Transitions between orbitals
 -0.6837       2 (Ag) A                  ->    5 (B2u) A                  
 -0.3997       2 (B3u) A                 ->    4 (B1g) A                  
 -0.2461       2 (B3u) A                 ->    5 (B1g) A                  
  0.2111       2 (Ag) A                  ->    7 (B2u) A                  
 -0.1777       2 (Ag) A                  ->    8 (B2u) A                  

              Summary of significant orbitals:

               Number  Type             Irrep      Energy
               6       Occ  Alpha       2 (Ag)    -11.4442
               5       Occ  Alpha       2 (B3u)    -11.4442
               27      Vir  Alpha       4 (B1g)     -0.0461
               38      Vir  Alpha       5 (B1g)      0.0330
               25      Vir  Alpha       5 (B2u)     -0.0692
               35      Vir  Alpha       7 (B2u)      0.0250
               40      Vir  Alpha       8 (B2u)      0.0387


 EOMEE transition 4/B2u
 Total energy = -220.45511982 a.u.  Excitation energy = 293.5423 eV.
 R0^2 = 0.0000  R1^2 = 0.8030  R2_CCVV^2 = 0.0004  R2_COVV^2 = 0.0983  Res^2 = 5.28e-06
 Conv-d = yes

 Amplitude    Transitions between orbitals
 -0.6981       2 (Ag) B                  ->    5 (B2u) B                  
  0.3818       2 (B3u) B                 ->    4 (B1g) B                  
  0.2284       2 (B3u) B                 ->    5 (B1g) B                  
  0.2218       2 (Ag) B                  ->    7 (B2u) B                  
  0.1689       2 (Ag) B                  ->    8 (B2u) B                  

              Summary of significant orbitals:

               Number  Type             Irrep      Energy
               6       Occ  Beta        2 (Ag)    -11.4513
               5       Occ  Beta        2 (B3u)    -11.4513
               27      Vir  Beta        4 (B1g)     -0.0455
               39      Vir  Beta        5 (B1g)      0.0346
               23      Vir  Beta        5 (B2u)     -0.0684
               35      Vir  Beta        7 (B2u)      0.0275
               40      Vir  Beta        8 (B2u)      0.0404


 EOMEE transition 5/B2u
 Total energy = -220.44227004 a.u.  Excitation energy = 293.8920 eV.
 R0^2 = 0.0000  R1^2 = 0.7946  R2_CCVV^2 = 0.0004  R2_COVV^2 = 0.1025  Res^2 = 5.43e-06
 Conv-d = yes

 Amplitude    Transitions between orbitals
  0.5927       1 (B2u) B                 ->    9 (Ag) B                    
 -0.4414       1 (B2u) B                 ->    7 (Ag) B                    
  0.2311       1 (Ag) B                  ->    5 (B2u) B                   
 -0.1590       1 (Ag) B                  ->    8 (B2u) B                   
  0.1457       1 (B2u) A                 ->    7 (Ag) A                    
 -0.1229       1 (B3u) B                 ->    4 (B1g) B                   
 -0.1205       1 (B2u) A                 ->    9 (Ag) A                    
 -0.1104       1 (B2u) B                 ->    8 (Ag) B                    
 -0.1025       1 (Ag) B                  ->    10 (B2u) B                  

              Summary of significant orbitals:

               Number  Type             Irrep      Energy
               1       Occ  Alpha       1 (B2u)    -11.5003
               1       Occ  Beta        1 (Ag)    -11.4917
               2       Occ  Beta        1 (B2u)    -11.4916
               3       Occ  Beta        1 (B3u)    -11.4908
               23      Vir  Alpha       7 (Ag)     -0.0861
               31      Vir  Alpha       9 (Ag)     -0.0156
               22      Vir  Beta        7 (Ag)     -0.0855
               28      Vir  Beta        8 (Ag)     -0.0450
               31      Vir  Beta        9 (Ag)     -0.0125
               27      Vir  Beta        4 (B1g)     -0.0455
               23      Vir  Beta        5 (B2u)     -0.0684
               40      Vir  Beta        8 (B2u)      0.0404
               59      Vir  Beta       10 (B2u)      0.2101


 EOMEE transition 6/B2u
 Total energy = -220.43793524 a.u.  Excitation energy = 294.0099 eV.
 R0^2 = 0.0000  R1^2 = 0.8068  R2_CCVV^2 = 0.0004  R2_COVV^2 = 0.0964  Res^2 = 9.59e-06
 Conv-d = yes

 Amplitude    Transitions between orbitals
 -0.5350       2 (B3u) A                 ->    4 (B1g) A                   
  0.4680       2 (Ag) A                  ->    5 (B2u) A                   
 -0.3603       2 (B3u) A                 ->    5 (B1g) A                   
 -0.2274       2 (B3u) A                 ->    9 (B1g) A                   
  0.2048       2 (Ag) A                  ->    6 (B2u) A                   
  0.1215       2 (B3u) A                 ->    8 (B1g) A                   
  0.1175       2 (Ag) A                  ->    10 (B2u) A                  
 -0.1067       2 (Ag) A                  ->    7 (B2u) A                   

              Summary of significant orbitals:

               Number  Type             Irrep      Energy
               6       Occ  Alpha       2 (Ag)    -11.4442
               5       Occ  Alpha       2 (B3u)    -11.4442
               27      Vir  Alpha       4 (B1g)     -0.0461
               38      Vir  Alpha       5 (B1g)      0.0330
               54      Vir  Alpha       8 (B1g)      0.1684
               56      Vir  Alpha       9 (B1g)      0.1797
               25      Vir  Alpha       5 (B2u)     -0.0692
               34      Vir  Alpha       6 (B2u)      0.0147
               35      Vir  Alpha       7 (B2u)      0.0250
               59      Vir  Alpha      10 (B2u)      0.2078


      CVS-EOM-CCSD/MP2 left amplitudes will be solved using Davidson.
        Amplitudes will be solved using MOM  algorithm.
     Hard-coded thresholds: 
     LinDepThresh=1.00e-15  NormThresh=1.00e-06  ReorthogonThresh=1.00e-02

      Roots     MaxVec    MaxIter   Precond   Conv      Shift    
      6         120       60        1         1.00e-05  0.00e+00  
 ------------------------------------------------------------------------------
      Iter ConvRoots NVecs ResNorm Current eigenvalues (eV)
 ------------------------------------------------------------------------------
      0    0      6     2.65e-02   292.5242   292.9741   293.3562   293.5423   293.8920   294.0099   
      1    0      12    4.14e-03   292.5242   292.9740   293.3561   293.5424   293.8921   294.0094   
      2    0      18    5.49e-04   292.5242   292.9740   293.3560   293.5422   293.8921   294.0094   
      3    0      24    7.28e-05   292.5242   292.9739   293.3559   293.5421   293.8920   294.0092   
      4    2      30    1.44e-05   292.5242   292.9739   293.3559*  293.5421*  293.8921   294.0092   
      5    6      34    7.73e-06   292.5242*  292.9739*  293.3559*  293.5421*  293.8920*  294.0092*  

     Davidson procedure converged

        Solving for CVS-EOMEE-CCSD B3u transitions.

        CVS-EOMEE-CCSD/MP2 right amplitudes will be solved using Davidson.
        Amplitudes will be solved using standard  algorithm.
     Hard-coded thresholds: 
     LinDepThresh=1.00e-15  NormThresh=1.00e-06  ReorthogonThresh=1.00e-02

      Roots     MaxVec    MaxIter   Precond   Conv      Shift    
      6         120       60        1         1.00e-05  0.00e+00  
 ------------------------------------------------------------------------------
      Iter ConvRoots NVecs ResNorm Current eigenvalues (eV)
 ------------------------------------------------------------------------------
      0    0      6     7.79e-01   304.9252   305.1821   306.4446   306.5034   306.8471   307.3894   
      1    0      12    1.13e+00   299.4641   299.7262   300.8735   300.9180   301.2076   301.7541   
      2    0      18    2.02e-02   292.7722   293.0052   294.0359   294.0750   294.3572   294.9363   
      3    0      24    5.49e-03   292.3858   292.6199   293.6275   293.7820   294.0569   294.6639   
      4    0      30    1.10e-02   292.0881   292.3799   293.3754   293.6198   293.9125   294.5335   
      5    0      36    5.81e-03   291.7609   292.1178   293.0259   293.3538   293.6721   294.2535   
      6    0      42    2.51e-03   291.6824   292.0437   292.8456   293.2526   293.5244   294.0989   
      7    0      48    1.65e-03   291.6694   292.0332   292.8005   293.2064   293.4635   294.0361   
      8    0      54    3.70e-03   291.6485   292.0204   292.7220   293.0947   293.3610   293.8846   
      9    0      60    2.33e-03   291.6353   292.0099   292.6472   292.9643   293.2307   293.7047   
      10   0      66    8.06e-04   291.6335   292.0080   292.6104   292.8823   293.1468   293.6026   
      11   2      72    2.66e-04   291.6331*  292.0077*  292.5875   292.8696   293.1215   293.5908   
      12   2      76    1.73e-04   291.6328*  292.0076*  292.5708   292.8637   293.1057   293.5823   
      13   2      80    2.02e-04   291.6326*  292.0075*  292.5560   292.8618   293.0981   293.5776   
      14   2      84    1.09e-03   291.6326*  292.0075*  292.5430   292.8605   293.0907   293.4842   
      15   3      88    1.03e-03   291.6326*  292.0075*  292.5360   292.8605*  293.0888   293.3535   
      16   3      91    6.69e-04   291.6325*  292.0075*  292.5268   292.8605*  293.0877   293.2216   
      17   3      94    6.71e-04   291.6325*  292.0075*  292.5187   292.8605*  293.0868   293.1058   
      18   3      97    3.70e-04   291.6325*  292.0075*  292.5156   292.8605*  293.0339   293.0877   
      19   4      100   2.02e-04   291.6325*  292.0075*  292.5132   292.8605*  292.9999   293.0870*  
      20   4      102   1.15e-04   291.6325*  292.0075*  292.5108   292.8605*  292.9721   293.0870*  
      21   4      104   6.93e-05   291.6325*  292.0075*  292.5104   292.8605*  292.9652   293.0870*  
      22   4      106   3.37e-05   291.6325*  292.0075*  292.5096   292.8605*  292.9562   293.0870*  
      23   5      108   1.39e-05   291.6325*  292.0075*  292.5093*  292.8605*  292.9529   293.0870*  
      24   5      109   7.09e-06   291.6325*  292.0075*  292.5094*  292.8605*  292.9523   293.0870*  
      25   5      110   4.73e-06   291.6325*  292.0075*  292.5094*  292.8605*  292.9518   293.0870*  
Found complex roots...
      26   6      111   4.05e-06   291.6325*  292.0075*  292.5094*  292.8605*  292.9517*  293.0870*  

     Davidson procedure converged

 EOMEE transition 1/B3u
 Total energy = -220.52530434 a.u.  Excitation energy = 291.6325 eV.
 R0^2 = 0.0000  R1^2 = 0.8308  R2_CCVV^2 = 0.0004  R2_COVV^2 = 0.0844  Res^2 = 2.00e-06
 Conv-d = yes

 Amplitude    Transitions between orbitals
 -0.4660       2 (B3u) A                 ->    7 (Ag) A                    
 -0.3199       2 (Ag) A                  ->    6 (B3u) A                   
 -0.2925       2 (B3u) B                 ->    7 (Ag) B                    
  0.2165       2 (Ag) B                  ->    6 (B3u) B                   
  0.1978       2 (B3u) A                 ->    11 (Ag) A                   
  0.1840       2 (Ag) A                  ->    9 (B3u) A                   
 -0.1840       2 (B3u) A                 ->    10 (Ag) A                   
  0.1637       2 (B3u) A                 ->    8 (Ag) A                    
 -0.1349       2 (B3u) B                 ->    11 (Ag) B                   
 -0.1335       2 (Ag) B                  ->    9 (B3u) B                   
 -0.1244       2 (B3u) B                 ->    10 (Ag) B                   
 -0.1206       2 (B3u) A                 ->    13 (Ag) A                   
 -0.1197       2 (B3u) B                 ->    8 (Ag) B                    
 -0.1188       2 (Ag) A                  ->    8 (B3u) A                   
  0.1081       2 (Ag) A                  ->    15 (B3u) A                  
 -0.1027       2 (Ag) A                  ->    12 (B3u) A                  

              Summary of significant orbitals:

               Number  Type             Irrep      Energy
               6       Occ  Alpha       2 (Ag)    -11.4442
               5       Occ  Alpha       2 (B3u)    -11.4442
               6       Occ  Beta        2 (Ag)    -11.4513
               5       Occ  Beta        2 (B3u)    -11.4513
               23      Vir  Alpha       7 (Ag)     -0.0861
               28      Vir  Alpha       8 (Ag)     -0.0450
               36      Vir  Alpha      10 (Ag)      0.0283
               39      Vir  Alpha      11 (Ag)      0.0343
               51      Vir  Alpha      13 (Ag)      0.1561
               26      Vir  Alpha       6 (B3u)     -0.0653
               37      Vir  Alpha       8 (B3u)      0.0286
               41      Vir  Alpha       9 (B3u)      0.0426
               58      Vir  Alpha      12 (B3u)      0.1990
               66      Vir  Alpha      15 (B3u)      0.2726
               22      Vir  Beta        7 (Ag)     -0.0855
               28      Vir  Beta        8 (Ag)     -0.0450
               37      Vir  Beta       10 (Ag)      0.0297
               38      Vir  Beta       11 (Ag)      0.0339
               24      Vir  Beta        6 (B3u)     -0.0654
               41      Vir  Beta        9 (B3u)      0.0425


 EOMEE transition 2/B3u
 Total energy = -220.51152433 a.u.  Excitation energy = 292.0075 eV.
 R0^2 = 0.0000  R1^2 = 0.8206  R2_CCVV^2 = 0.0004  R2_COVV^2 = 0.0895  Res^2 = 4.66e-06
 Conv-d = yes

 Amplitude    Transitions between orbitals
  0.5055       2 (B3u) B                 ->    7 (Ag) B                   
 -0.3771       2 (B3u) A                 ->    7 (Ag) A                   
 -0.3190       2 (Ag) B                  ->    6 (B3u) B                  
 -0.2083       2 (Ag) A                  ->    6 (B3u) A                  
  0.2030       2 (B3u) B                 ->    10 (Ag) B                  
  0.1728       2 (Ag) B                  ->    9 (B3u) B                  
  0.1695       2 (B3u) B                 ->    11 (Ag) B                  
  0.1426       2 (B3u) B                 ->    8 (Ag) B                   
 -0.1417       2 (B3u) A                 ->    10 (Ag) A                  
  0.1189       2 (B3u) B                 ->    13 (Ag) B                  
  0.1122       2 (Ag) B                  ->    8 (B3u) B                  
  0.1092       2 (B3u) A                 ->    11 (Ag) A                  
  0.1019       2 (Ag) A                  ->    9 (B3u) A                  

              Summary of significant orbitals:

               Number  Type             Irrep      Energy
               6       Occ  Alpha       2 (Ag)    -11.4442
               5       Occ  Alpha       2 (B3u)    -11.4442
               6       Occ  Beta        2 (Ag)    -11.4513
               5       Occ  Beta        2 (B3u)    -11.4513
               23      Vir  Alpha       7 (Ag)     -0.0861
               36      Vir  Alpha      10 (Ag)      0.0283
               39      Vir  Alpha      11 (Ag)      0.0343
               26      Vir  Alpha       6 (B3u)     -0.0653
               41      Vir  Alpha       9 (B3u)      0.0426
               22      Vir  Beta        7 (Ag)     -0.0855
               28      Vir  Beta        8 (Ag)     -0.0450
               37      Vir  Beta       10 (Ag)      0.0297
               38      Vir  Beta       11 (Ag)      0.0339
               50      Vir  Beta       13 (Ag)      0.1596
               24      Vir  Beta        6 (B3u)     -0.0654
               36      Vir  Beta        8 (B3u)      0.0285
               41      Vir  Beta        9 (B3u)      0.0425


 EOMEE transition 3/B3u
 Total energy = -220.49307987 a.u.  Excitation energy = 292.5094 eV.
 R0^2 = 0.0000  R1^2 = 0.8201  R2_CCVV^2 = 0.0003  R2_COVV^2 = 0.0898  Res^2 = 4.35e-07
 Conv-d = yes

 Amplitude    Transitions between orbitals
 -0.4626       1 (B3u) B                 ->    7 (Ag) B                    
  0.2797       1 (B1g) B                 ->    5 (B2u) B                   
 -0.2730       1 (B3u) A                 ->    7 (Ag) A                    
 -0.2559       1 (B3u) B                 ->    10 (Ag) B                   
  0.1730       1 (B1g) A                 ->    5 (B2u) A                   
  0.1710       1 (Ag) B                  ->    6 (B3u) B                   
 -0.1597       1 (B3u) A                 ->    10 (Ag) A                   
 -0.1510       1 (B1g) B                 ->    8 (B2u) B                   
  0.1418       1 (B2u) B                 ->    4 (B1g) B                   
 -0.1270       1 (B3u) B                 ->    13 (Ag) B                   
 -0.1233       1 (B1g) B                 ->    7 (B2u) B                   
 -0.1069       1 (Ag) B                  ->    9 (B3u) B                   
 -0.1046       1 (Ag) A                  ->    6 (B3u) A                   
  0.1033       1 (B1g) A                 ->    8 (B2u) A                   
 -0.1002       1 (B1g) B                 ->    10 (B2u) B                  

              Summary of significant orbitals:

               Number  Type             Irrep      Energy
               2       Occ  Alpha       1 (Ag)    -11.5002
               4       Occ  Alpha       1 (B1g)    -11.4992
               3       Occ  Alpha       1 (B3u)    -11.4993
               1       Occ  Beta        1 (Ag)    -11.4917
               4       Occ  Beta        1 (B1g)    -11.4908
               2       Occ  Beta        1 (B2u)    -11.4916
               3       Occ  Beta        1 (B3u)    -11.4908
               23      Vir  Alpha       7 (Ag)     -0.0861
               36      Vir  Alpha      10 (Ag)      0.0283
               25      Vir  Alpha       5 (B2u)     -0.0692
               40      Vir  Alpha       8 (B2u)      0.0387
               26      Vir  Alpha       6 (B3u)     -0.0653
               22      Vir  Beta        7 (Ag)     -0.0855
               37      Vir  Beta       10 (Ag)      0.0297
               50      Vir  Beta       13 (Ag)      0.1596
               27      Vir  Beta        4 (B1g)     -0.0455
               23      Vir  Beta        5 (B2u)     -0.0684
               35      Vir  Beta        7 (B2u)      0.0275
               40      Vir  Beta        8 (B2u)      0.0404
               59      Vir  Beta       10 (B2u)      0.2101
               24      Vir  Beta        6 (B3u)     -0.0654
               41      Vir  Beta        9 (B3u)      0.0425


 EOMEE transition 4/B3u
 Total energy = -220.48017640 a.u.  Excitation energy = 292.8605 eV.
 R0^2 = 0.0000  R1^2 = 0.8137  R2_CCVV^2 = 0.0004  R2_COVV^2 = 0.0929  Res^2 = 7.94e-06
 Conv-d = yes

 Amplitude    Transitions between orbitals
 -0.6602       2 (B3u) A                 ->    9 (Ag) A                    
  0.4074       2 (B3u) A                 ->    7 (Ag) A                    
 -0.2270       2 (Ag) A                  ->    6 (B3u) A                   
  0.1971       2 (Ag) A                  ->    9 (B3u) A                   
 -0.1288       2 (Ag) A                  ->    12 (B3u) A                  
  0.1199       2 (B3u) B                 ->    7 (Ag) B                    
 -0.1029       2 (B3u) A                 ->    13 (Ag) A                   

              Summary of significant orbitals:

               Number  Type             Irrep      Energy
               6       Occ  Alpha       2 (Ag)    -11.4442
               5       Occ  Alpha       2 (B3u)    -11.4442
               5       Occ  Beta        2 (B3u)    -11.4513
               23      Vir  Alpha       7 (Ag)     -0.0861
               31      Vir  Alpha       9 (Ag)     -0.0156
               51      Vir  Alpha      13 (Ag)      0.1561
               26      Vir  Alpha       6 (B3u)     -0.0653
               41      Vir  Alpha       9 (B3u)      0.0426
               58      Vir  Alpha      12 (B3u)      0.1990
               22      Vir  Beta        7 (Ag)     -0.0855


 EOMEE transition 5/B3u
 Total energy = -220.47682652 a.u.  Excitation energy = 292.9517 eV.
 R0^2 = 0.0000  R1^2 = 0.8071  R2_CCVV^2 = 0.0004  R2_COVV^2 = 0.0962  Res^2 = 7.79e-06
 Conv-d = yes

 Amplitude    Transitions between orbitals
  0.5083       1 (B3u) A                 ->    7 (Ag) A                   
 -0.3516       1 (B3u) B                 ->    7 (Ag) B                   
 -0.2711       1 (B1g) A                 ->    5 (B2u) A                  
  0.2517       1 (B3u) A                 ->    10 (Ag) A                  
  0.1712       1 (Ag) A                  ->    6 (B3u) A                  
  0.1691       1 (B1g) B                 ->    5 (B2u) B                  
 -0.1610       1 (B3u) B                 ->    10 (Ag) B                  
 -0.1425       1 (B1g) A                 ->    8 (B2u) A                  
 -0.1223       1 (B2u) A                 ->    4 (B1g) A                  
  0.1193       1 (B3u) A                 ->    13 (Ag) A                  
  0.1078       1 (Ag) B                  ->    6 (B3u) B                  
  0.1028       1 (B1g) A                 ->    7 (B2u) A                  
 -0.1008       1 (Ag) A                  ->    9 (B3u) A                  

              Summary of significant orbitals:

               Number  Type             Irrep      Energy
               2       Occ  Alpha       1 (Ag)    -11.5002
               4       Occ  Alpha       1 (B1g)    -11.4992
               1       Occ  Alpha       1 (B2u)    -11.5003
               3       Occ  Alpha       1 (B3u)    -11.4993
               1       Occ  Beta        1 (Ag)    -11.4917
               4       Occ  Beta        1 (B1g)    -11.4908
               3       Occ  Beta        1 (B3u)    -11.4908
               23      Vir  Alpha       7 (Ag)     -0.0861
               36      Vir  Alpha      10 (Ag)      0.0283
               51      Vir  Alpha      13 (Ag)      0.1561
               27      Vir  Alpha       4 (B1g)     -0.0461
               25      Vir  Alpha       5 (B2u)     -0.0692
               35      Vir  Alpha       7 (B2u)      0.0250
               40      Vir  Alpha       8 (B2u)      0.0387
               26      Vir  Alpha       6 (B3u)     -0.0653
               41      Vir  Alpha       9 (B3u)      0.0426
               22      Vir  Beta        7 (Ag)     -0.0855
               37      Vir  Beta       10 (Ag)      0.0297
               23      Vir  Beta        5 (B2u)     -0.0684
               24      Vir  Beta        6 (B3u)     -0.0654


 EOMEE transition 6/B3u
 Total energy = -220.47185205 a.u.  Excitation energy = 293.0870 eV.
 R0^2 = 0.0000  R1^2 = 0.8094  R2_CCVV^2 = 0.0004  R2_COVV^2 = 0.0951  Res^2 = 1.49e-06
 Conv-d = yes

 Amplitude    Transitions between orbitals
 -0.6341       2 (B3u) B                 ->    9 (Ag) B                    
  0.4230       2 (B3u) B                 ->    7 (Ag) B                    
  0.2407       2 (Ag) B                  ->    6 (B3u) B                   
 -0.2024       2 (Ag) B                  ->    9 (B3u) B                   
  0.1347       2 (B3u) A                 ->    9 (Ag) A                    
 -0.1326       2 (B3u) B                 ->    8 (Ag) B                    
  0.1226       2 (Ag) B                  ->    12 (B3u) B                  
  0.1084       2 (B3u) B                 ->    10 (Ag) B                   
 -0.1050       2 (B3u) B                 ->    13 (Ag) B                   

              Summary of significant orbitals:

               Number  Type             Irrep      Energy
               5       Occ  Alpha       2 (B3u)    -11.4442
               6       Occ  Beta        2 (Ag)    -11.4513
               5       Occ  Beta        2 (B3u)    -11.4513
               31      Vir  Alpha       9 (Ag)     -0.0156
               22      Vir  Beta        7 (Ag)     -0.0855
               28      Vir  Beta        8 (Ag)     -0.0450
               31      Vir  Beta        9 (Ag)     -0.0125
               37      Vir  Beta       10 (Ag)      0.0297
               50      Vir  Beta       13 (Ag)      0.1596
               24      Vir  Beta        6 (B3u)     -0.0654
               41      Vir  Beta        9 (B3u)      0.0425
               58      Vir  Beta       12 (B3u)      0.2003


      CVS-EOM-CCSD/MP2 left amplitudes will be solved using Davidson.
        Amplitudes will be solved using MOM  algorithm.
     Hard-coded thresholds: 
     LinDepThresh=1.00e-15  NormThresh=1.00e-06  ReorthogonThresh=1.00e-02

      Roots     MaxVec    MaxIter   Precond   Conv      Shift    
      6         120       60        1         1.00e-05  0.00e+00  
 ------------------------------------------------------------------------------
      Iter ConvRoots NVecs ResNorm Current eigenvalues (eV)
 ------------------------------------------------------------------------------
      0    0      6     2.48e-02   291.6325   292.0075   292.5094   292.8605   292.9517   293.0870   
      1    0      12    4.13e-03   291.6324   292.0074   292.5094   292.8604   292.9516   293.0871   
      2    0      18    5.59e-04   291.6324   292.0073   292.5094   292.8604   292.9515   293.0871   
      3    0      24    6.97e-05   291.6324   292.0072   292.5094   292.8603   292.9514   293.0871   
      4    3      30    1.28e-05   291.6324   292.0072*  292.5094   292.8604*  292.9514   293.0871*  
      5    6      33    7.63e-06   291.6324*  292.0072*  292.5093*  292.8604*  292.9514*  293.0871*  

     Davidson procedure converged

 CVS-EOMEE-CCSD calculation:   CPU 46928.25 s  wall 35777.21 s


 Start computing the transition properties

 ------------------------------------------------------------------------------
 State A: ccsd: 0/Ag
 State B: cvs_eomee_ccsd/uhfref: 1/B1u
 Transition dipole moment (a.u.):
   A->B: 0.106093 (X 0.000000, Y 0.000000, Z 0.106093)
   B->A: 0.107835 (X 0.000000, Y 0.000000, Z 0.107835)
 Oscillator strength (a.u.): 0.079615
 Norm of one-particle transition density matrix:
   A->B: 0.906927;   B->A: 0.903958
   ||gamma^AB||*||gamma^BA||: 0.819824

 ------------------------------------------------------------------------------
 State A: ccsd: 0/Ag
 State B: cvs_eomee_ccsd/uhfref: 2/B1u
 Transition dipole moment (a.u.):
   A->B: 0.054822 (X 0.000000, Y 0.000000, Z -0.054822)
   B->A: 0.059454 (X 0.000000, Y 0.000000, Z -0.059454)
 Oscillator strength (a.u.): 0.022959
 Norm of one-particle transition density matrix:
   A->B: 0.902214;   B->A: 0.913134
   ||gamma^AB||*||gamma^BA||: 0.823843

 ------------------------------------------------------------------------------
 State A: ccsd: 0/Ag
 State B: cvs_eomee_ccsd/uhfref: 3/B1u
 Transition dipole moment (a.u.):
   A->B: 0.107715 (X 0.000000, Y 0.000000, Z 0.107715)
   B->A: 0.107938 (X 0.000000, Y 0.000000, Z 0.107938)
 Oscillator strength (a.u.): 0.082071
 Norm of one-particle transition density matrix:
   A->B: 0.892460;   B->A: 0.891225
   ||gamma^AB||*||gamma^BA||: 0.795382

 ------------------------------------------------------------------------------
 State A: ccsd: 0/Ag
 State B: cvs_eomee_ccsd/uhfref: 4/B1u
 Transition dipole moment (a.u.):
   A->B: 0.106996 (X 0.000000, Y 0.000000, Z -0.106996)
   B->A: 0.111868 (X 0.000000, Y 0.000000, Z -0.111868)
 Oscillator strength (a.u.): 0.084672
 Norm of one-particle transition density matrix:
   A->B: 0.896336;   B->A: 0.896963
   ||gamma^AB||*||gamma^BA||: 0.803981

 ------------------------------------------------------------------------------
 State A: ccsd: 0/Ag
 State B: cvs_eomee_ccsd/uhfref: 5/B1u
 Transition dipole moment (a.u.):
   A->B: 0.101849 (X 0.000000, Y 0.000000, Z 0.101849)
   B->A: 0.102022 (X 0.000000, Y 0.000000, Z 0.102022)
 Oscillator strength (a.u.): 0.073773
 Norm of one-particle transition density matrix:
   A->B: 0.881695;   B->A: 0.861914
   ||gamma^AB||*||gamma^BA||: 0.759945

 ------------------------------------------------------------------------------
 State A: ccsd: 0/Ag
 State B: cvs_eomee_ccsd/uhfref: 6/B1u
 Transition dipole moment (a.u.):
   A->B: 0.030798 (X 0.000000, Y 0.000000, Z -0.030798)
   B->A: 0.027698 (X 0.000000, Y 0.000000, Z -0.027698)
 Oscillator strength (a.u.): 0.006076
 Norm of one-particle transition density matrix:
   A->B: 0.852471;   B->A: 0.829909
   ||gamma^AB||*||gamma^BA||: 0.707473

 ------------------------------------------------------------------------------
 State A: ccsd: 0/Ag
 State B: cvs_eomee_ccsd/uhfref: 1/B2u
 Transition dipole moment (a.u.):
   A->B: 0.016360 (X 0.000000, Y -0.016360, Z 0.000000)
   B->A: 0.015898 (X 0.000000, Y -0.015898, Z 0.000000)
 Oscillator strength (a.u.): 0.001864
 Norm of one-particle transition density matrix:
   A->B: 0.905165;   B->A: 0.874169
   ||gamma^AB||*||gamma^BA||: 0.791267

 ------------------------------------------------------------------------------
 State A: ccsd: 0/Ag
 State B: cvs_eomee_ccsd/uhfref: 2/B2u
 Transition dipole moment (a.u.):
   A->B: 0.068049 (X 0.000000, Y -0.068049, Z 0.000000)
   B->A: 0.066775 (X 0.000000, Y -0.066775, Z 0.000000)
 Oscillator strength (a.u.): 0.032615
 Norm of one-particle transition density matrix:
   A->B: 0.900102;   B->A: 0.864708
   ||gamma^AB||*||gamma^BA||: 0.778325

 ------------------------------------------------------------------------------
 State A: ccsd: 0/Ag
 State B: cvs_eomee_ccsd/uhfref: 3/B2u
 Transition dipole moment (a.u.):
   A->B: 0.003695 (X 0.000000, Y 0.003695, Z 0.000000)
   B->A: 0.003589 (X 0.000000, Y 0.003589, Z 0.000000)
 Oscillator strength (a.u.): 0.000095
 Norm of one-particle transition density matrix:
   A->B: 0.895534;   B->A: 0.858814
   ||gamma^AB||*||gamma^BA||: 0.769097

 ------------------------------------------------------------------------------
 State A: ccsd: 0/Ag
 State B: cvs_eomee_ccsd/uhfref: 4/B2u
 Transition dipole moment (a.u.):
   A->B: 0.003283 (X 0.000000, Y -0.003283, Z 0.000000)
   B->A: 0.003143 (X 0.000000, Y -0.003143, Z 0.000000)
 Oscillator strength (a.u.): 0.000074
 Norm of one-particle transition density matrix:
   A->B: 0.897288;   B->A: 0.856107
   ||gamma^AB||*||gamma^BA||: 0.768175

 ------------------------------------------------------------------------------
 State A: ccsd: 0/Ag
 State B: cvs_eomee_ccsd/uhfref: 5/B2u
 Transition dipole moment (a.u.):
   A->B: 0.029290 (X 0.000000, Y 0.029290, Z 0.000000)
   B->A: 0.028682 (X 0.000000, Y 0.028682, Z 0.000000)
 Oscillator strength (a.u.): 0.006049
 Norm of one-particle transition density matrix:
   A->B: 0.894398;   B->A: 0.852893
   ||gamma^AB||*||gamma^BA||: 0.762826

 ------------------------------------------------------------------------------
 State A: ccsd: 0/Ag
 State B: cvs_eomee_ccsd/uhfref: 6/B2u
 Transition dipole moment (a.u.):
   A->B: 0.015576 (X 0.000000, Y 0.015576, Z 0.000000)
   B->A: 0.015210 (X 0.000000, Y 0.015210, Z 0.000000)
 Oscillator strength (a.u.): 0.001706
 Norm of one-particle transition density matrix:
   A->B: 0.894226;   B->A: 0.859286
   ||gamma^AB||*||gamma^BA||: 0.768396

 ------------------------------------------------------------------------------
 State A: ccsd: 0/Ag
 State B: cvs_eomee_ccsd/uhfref: 1/B3u
 Transition dipole moment (a.u.):
   A->B: 0.009339 (X 0.009339, Y 0.000000, Z 0.000000)
   B->A: 0.009327 (X 0.009327, Y 0.000000, Z 0.000000)
 Oscillator strength (a.u.): 0.000622
 Norm of one-particle transition density matrix:
   A->B: 0.907362;   B->A: 0.879088
   ||gamma^AB||*||gamma^BA||: 0.797650

 ------------------------------------------------------------------------------
 State A: ccsd: 0/Ag
 State B: cvs_eomee_ccsd/uhfref: 2/B3u
 Transition dipole moment (a.u.):
   A->B: 0.048663 (X 0.048663, Y 0.000000, Z 0.000000)
   B->A: 0.047703 (X 0.047703, Y 0.000000, Z 0.000000)
 Oscillator strength (a.u.): 0.016607
 Norm of one-particle transition density matrix:
   A->B: 0.903910;   B->A: 0.871138
   ||gamma^AB||*||gamma^BA||: 0.787430

 ------------------------------------------------------------------------------
 State A: ccsd: 0/Ag
 State B: cvs_eomee_ccsd/uhfref: 3/B3u
 Transition dipole moment (a.u.):
   A->B: 0.010064 (X 0.010064, Y 0.000000, Z 0.000000)
   B->A: 0.009741 (X 0.009741, Y 0.000000, Z 0.000000)
 Oscillator strength (a.u.): 0.000703
 Norm of one-particle transition density matrix:
   A->B: 0.905139;   B->A: 0.874125
   ||gamma^AB||*||gamma^BA||: 0.791204

 ------------------------------------------------------------------------------
 State A: ccsd: 0/Ag
 State B: cvs_eomee_ccsd/uhfref: 4/B3u
 Transition dipole moment (a.u.):
   A->B: 0.027141 (X 0.027141, Y 0.000000, Z 0.000000)
   B->A: 0.026298 (X 0.026298, Y 0.000000, Z 0.000000)
 Oscillator strength (a.u.): 0.005121
 Norm of one-particle transition density matrix:
   A->B: 0.899108;   B->A: 0.864623
   ||gamma^AB||*||gamma^BA||: 0.777389

 ------------------------------------------------------------------------------
 State A: ccsd: 0/Ag
 State B: cvs_eomee_ccsd/uhfref: 5/B3u
 Transition dipole moment (a.u.):
   A->B: 0.038379 (X 0.038379, Y 0.000000, Z 0.000000)
   B->A: 0.037452 (X 0.037452, Y 0.000000, Z 0.000000)
 Oscillator strength (a.u.): 0.010316
 Norm of one-particle transition density matrix:
   A->B: 0.900105;   B->A: 0.864709
   ||gamma^AB||*||gamma^BA||: 0.778329

 ------------------------------------------------------------------------------
 State A: ccsd: 0/Ag
 State B: cvs_eomee_ccsd/uhfref: 6/B3u
 Transition dipole moment (a.u.):
   A->B: 0.033024 (X -0.033024, Y 0.000000, Z 0.000000)
   B->A: 0.031868 (X -0.031868, Y 0.000000, Z 0.000000)
 Oscillator strength (a.u.): 0.007557
 Norm of one-particle transition density matrix:
   A->B: 0.900498;   B->A: 0.861746
   ||gamma^AB||*||gamma^BA||: 0.776001


 All requested transition properties have been computed

 Transition Properties:   CPU 78.80 s  wall 53.33 s

 Total ccman2 time:   CPU 48176.84 s  wall 36586.17 s


 --------------------------------------------------------------
             Orbital Energies (a.u.) and Symmetries
 --------------------------------------------------------------

 Alpha MOs, Unrestricted
 -- Occupied --                  
-11.500 -11.500 -11.499 -11.499 -11.444 -11.444  -1.392  -1.262
  1 B2u   1 Ag    1 B3u   1 B1g   2 B3u   2 Ag    3 Ag    2 B2u                
 -1.247  -1.066  -1.048  -0.933  -0.869  -0.852  -0.814  -0.811
  3 B3u   2 B1g   4 Ag    5 Ag    4 B3u   3 B2u   4 B2u   5 B3u                
 -0.747  -0.725  -0.714  -0.607  -0.555
  1 B1u   3 B1g   6 Ag    1 B3g   1 B2g                                        
 -- Virtual --                   
 -0.142  -0.086  -0.078  -0.069  -0.065  -0.046  -0.045  -0.030
  1 Au    7 Ag    2 B1u   5 B2u   6 B3u   4 B1g   8 Ag    3 B1u                
 -0.016  -0.016  -0.003   0.003   0.015   0.025   0.028   0.029
  7 B3u   9 Ag    2 B3g   2 B2g   6 B2u   7 B2u  10 Ag    8 B3u                
  0.033   0.034   0.039   0.043   0.047   0.057   0.061   0.070
  5 B1g  11 Ag    8 B2u   9 B3u   2 Au    4 B1u   3 B2g  10 B3u                
  0.070   0.073   0.138   0.149   0.154   0.156   0.157   0.162
  6 B1g  12 Ag    4 B2g   9 B2u  11 B3u  13 Ag    5 B1u   7 B1g                
  0.168   0.169   0.180   0.192   0.199   0.208   0.227   0.230
  8 B1g  14 Ag    9 B1g  15 Ag   12 B3u  10 B2u  11 B2u  13 B3u                
  0.253   0.258   0.263   0.267   0.273   0.279   0.289   0.321
 14 B3u   3 B3g  12 B2u   5 B2g  15 B3u  10 B1g  16 Ag   17 Ag                 
  0.338   0.349   0.359   0.370   0.373   0.385   0.404   0.406
  3 Au    6 B1u   4 B3g  11 B1g  16 B3u  13 B2u   6 B2g   7 B1u                
  0.407   0.419   0.434   0.441   0.489   0.492   0.492   0.495
 18 Ag   19 Ag   20 Ag   12 B1g   8 B1u  14 B2u   4 Au   17 B3u                
  0.497   0.512   0.519   0.520   0.525   0.559   0.574   0.584
 18 B3u  13 B1g  21 Ag   15 B2u  19 B3u   5 B3g   7 B2g  16 B2u                
  0.604   0.609   0.613   0.623   0.646   0.662   0.662   0.708
 14 B1g  20 B3u  22 Ag    9 B1u  15 B1g  21 B3u  17 B2u   6 B3g                
  0.710   0.714   0.721   0.726   0.739   0.755   0.758   0.764
 16 B1g  23 Ag    8 B2g   5 Au   10 B1u   9 B2g  17 B1g   7 B3g                
  0.785   0.786   0.790   0.796   0.871   0.897   0.901   0.919
 10 B2g  24 Ag   22 B3u  25 Ag   23 B3u   6 Au   24 B3u  18 B2u                
  0.951   0.963   1.003   1.128   1.154   1.187   1.267   1.285
  7 Au   11 B1u  18 B1g  19 B2u  25 B3u   8 B3g  11 B2g  20 B2u                
  1.299   1.312   1.319   1.329   1.350   1.395   1.407   1.414
 26 B3u  21 B2u  26 Ag   12 B1u  19 B1g  27 Ag   27 B3u  22 B2u                
  1.426   1.427   1.431   1.445   1.464   1.483   1.488   1.502
 20 B1g  28 B3u  28 Ag   29 Ag   13 B1u   8 Au    9 B3g  12 B2g                
  1.547   1.563   1.576   1.640   1.663   1.695   1.695   1.714
 30 Ag   23 B2u  21 B1g  31 Ag    9 Au   32 Ag   14 B1u  22 B1g                
  1.723   1.728   1.758   1.775   1.777   1.791   1.883   1.885
 29 B3u  24 B2u  33 Ag   13 B2g  23 B1g  30 B3u  15 B1u  31 B3u                
  1.898   1.904   1.914   1.953   1.959   1.979   2.030   2.032
 25 B2u  10 B3g  14 B2g  15 B2g  24 B1g  11 B3g  34 Ag   32 B3u                
  2.061   2.081   2.128   2.154   2.167   2.174   2.229   2.231
 26 B2u  27 B2u  10 Au   25 B1g  33 B3u  16 B1u  35 Ag   26 B1g                
  2.369   2.447   2.556   2.559   2.574   2.578   2.612   2.741
 11 Au   16 B2g  34 B3u  27 B1g  28 B2u  36 Ag   37 Ag   35 B3u                
  2.762   2.773   2.883   2.899   2.908   2.909   3.152   3.306
 36 B3u  29 B2u  38 Ag   30 B2u  28 B1g  37 B3u  29 B1g  30 B1g                
  3.329   3.631   4.547
 39 Ag   38 B3u  39 B3u                                                        

 Beta MOs, Unrestricted
 -- Occupied --                  
-11.492 -11.492 -11.491 -11.491 -11.451 -11.451  -1.369  -1.250
  1 Ag    1 B2u   1 B3u   1 B1g   2 B3u   2 Ag    3 Ag    3 B3u                
 -1.211  -1.045  -1.042  -0.929  -0.862  -0.845  -0.813  -0.804
  2 B2u   2 B1g   4 Ag    5 Ag    4 B3u   3 B2u   5 B3u   4 B2u                
 -0.723  -0.710  -0.668  -0.574
  3 B1g   6 Ag    1 B1u   1 B2g                                                
 -- Virtual --                   
 -0.237  -0.085  -0.068  -0.065  -0.061  -0.048  -0.045  -0.045
  1 B3g   7 Ag    5 B2u   6 B3u   2 B1u   1 Au    4 B1g   8 Ag                 
 -0.023  -0.016  -0.013   0.003   0.008   0.015   0.027   0.028
  3 B1u   7 B3u   9 Ag    2 B2g   2 B3g   6 B2u   7 B2u   8 B3u                
  0.030   0.034   0.035   0.040   0.042   0.060   0.063   0.066
 10 Ag   11 Ag    5 B1g   8 B2u   9 B3u   4 B1u   2 Au    3 B2g                
  0.070   0.070   0.073   0.154   0.157   0.160   0.162   0.162
  6 B1g  10 B3u  12 Ag   11 B3u   9 B2u  13 Ag    5 B1u   7 B1g                
  0.166   0.170   0.170   0.190   0.192   0.200   0.210   0.228
  4 B2g   8 B1g  14 Ag    9 B1g  15 Ag   12 B3u  10 B2u  11 B2u                
  0.233   0.259   0.266   0.267   0.267   0.270   0.282   0.288
 13 B3u  14 B3u   5 B2g  12 B2u   3 B3g  15 B3u  10 B1g  16 Ag                 
  0.327   0.345   0.350   0.371   0.377   0.385   0.397   0.405
 17 Ag    3 Au    6 B1u   4 B3g  16 B3u  11 B1g  13 B2u  18 Ag                 
  0.412   0.415   0.420   0.439   0.441   0.494   0.495   0.499
  6 B2g   7 B1u  19 Ag   20 Ag   12 B1g  17 B3u   8 B1u  14 B2u                
  0.504   0.504   0.517   0.521   0.524   0.528   0.574   0.581
  4 Au   18 B3u  13 B1g  21 Ag   15 B2u  19 B3u   7 B2g   5 B3g                
  0.585   0.608   0.611   0.614   0.643   0.649   0.663   0.667
 16 B2u  14 B1g  20 B3u  22 Ag    9 B1u  15 B1g  21 B3u  17 B2u                
  0.712   0.715   0.720   0.728   0.738   0.746   0.762   0.770
 16 B1g  23 Ag    8 B2g   6 B3g   5 Au   10 B1u  17 B1g   9 B2g                
  0.780   0.785   0.787   0.795   0.799   0.873   0.898   0.902
 10 B2g   7 B3g  24 Ag   22 B3u  25 Ag   23 B3u   6 Au   24 B3u                
  0.920   0.963   0.974   1.004   1.131   1.154   1.206   1.274
 18 B2u  11 B1u   7 Au   18 B1g  19 B2u  25 B3u   8 B3g  11 B2g                
  1.292   1.300   1.322   1.322   1.339   1.351   1.402   1.405
 20 B2u  26 B3u  26 Ag   21 B2u  12 B1u  19 B1g  27 Ag   27 B3u                
  1.426   1.429   1.434   1.434   1.443   1.487   1.488   1.502
 22 B2u  28 B3u  20 B1g  28 Ag   29 Ag    8 Au   13 B1u  12 B2g                
  1.507   1.553   1.566   1.581   1.653   1.678   1.694   1.697
  9 B3g  30 Ag   23 B2u  21 B1g  31 Ag    9 Au   14 B1u  32 Ag                 
  1.716   1.725   1.745   1.759   1.779   1.780   1.790   1.885
 22 B1g  29 B3u  24 B2u  33 Ag   23 B1g  13 B2g  30 B3u  31 B3u                
  1.888   1.901   1.912   1.918   1.969   1.970   1.985   2.029
 15 B1u  25 B2u  10 B3g  14 B2g  15 B2g  24 B1g  11 B3g  34 Ag                 
  2.033   2.063   2.081   2.139   2.155   2.173   2.175   2.231
 32 B3u  26 B2u  27 B2u  10 Au   25 B1g  33 B3u  16 B1u  35 Ag                 
  2.233   2.380   2.453   2.557   2.563   2.580   2.582   2.611
 26 B1g  11 Au   16 B2g  34 B3u  27 B1g  36 Ag   28 B2u  37 Ag                 
  2.741   2.763   2.775   2.885   2.905   2.910   2.914   3.153
 35 B3u  36 B3u  29 B2u  38 Ag   30 B2u  37 B3u  28 B1g  29 B1g                
  3.312   3.329   3.633   4.550
 30 B1g  39 Ag   38 B3u  39 B3u                                                
 --------------------------------------------------------------

          Ground-State Mulliken Net Atomic Charges

     Atom                 Charge (a.u.)    Spin (a.u.)
  --------------------------------------------------------
      1 H                    -0.367051      -0.025836
      2 C                     0.495834       0.535750
      3 C                     0.495834       0.535750
      4 H                    -0.367051      -0.025836
      5 C                     0.592532      -0.527078
      6 H                    -0.350098       0.007251
      7 C                     0.495834       0.535750
      8 H                    -0.367051      -0.025836
      9 C                     0.495834       0.535750
     10 H                    -0.367051      -0.025836
     11 C                     0.592532      -0.527078
     12 H                    -0.350098       0.007251
  --------------------------------------------------------
  Sum of atomic charges =     1.000000
  Sum of spin   charges =     1.000000

 -----------------------------------------------------------------
                    Cartesian Multipole Moments
 -----------------------------------------------------------------
    Charge (ESU x 10^10)
                 4.8032
    Dipole Moment (Debye)
         X      -0.0000      Y       0.0000      Z      -0.0000
       Tot       0.0000
    Quadrupole Moments (Debye-Ang)
        XX     -21.8933     XY      -0.0000     YY     -18.1801
        XZ      -0.0000     YZ       0.0000     ZZ     -36.2577
    Octopole Moments (Debye-Ang^2)
       XXX       0.0000    XXY       0.0000    XYY       0.0000
       YYY      -0.0000    XXZ       0.0000    XYZ      -0.0000
       YYZ      -0.0000    XZZ       0.0000    YZZ      -0.0000
       ZZZ      -0.0000
    Hexadecapole Moments (Debye-Ang^3)
      XXXX    -224.7798   XXXY       0.0000   XXYY     -68.6036
      XYYY      -0.0000   YYYY    -194.7153   XXXZ       0.0000
      XXYZ       0.0000   XYYZ       0.0000   YYYZ       0.0000
      XXZZ     -59.7830   XYZZ      -0.0000   YYZZ     -52.1934
      XZZZ       0.0000   YZZZ       0.0000   ZZZZ     -39.7890
 -----------------------------------------------------------------
Archival summary:
1\1\Annas-MacBook-Pro-3.local\SP\ProcedureUnspecified\BasisUnspecified\66(1+,2)\TueSep1119:57:002018TueSep1119:57:002018\0\\#,ProcedureUnspecified,BasisUnspecified,\\1,2\C\H,1,1.0787\C,1,1.38607,2,120.89\H,3,1.08107,1,120.559,2,0,0\C,1,1.38607,2,120.89,3,-180,0\H,5,1.08107,1,120.559,2,-0,0\C,3,1.44519,1,120.89,2,-180,0\H,7,1.08107,3,118.551,1,-180,0\C,7,1.38607,3,120.89,1,0,0\H,9,1.0787,7,120.89,3,-180,0\C,9,1.38607,7,118.221,3,-0,0\H,11,1.08107,9,120.559,7,180,0\\HF=-230.443794\\@

 Total job time:  36642.71s(wall), 48229.42s(cpu) 
 Tue Sep 11 19:57:00 2018

        *************************************************************
        *                                                           *
        *  Thank you very much for using Q-Chem.  Have a nice day.  *
        *                                                           *
        *************************************************************


