annas-macbook-pro-3.local 100.77.254
Q-Chem Developer Version! Running on 100.77.254.*
                  Welcome to Q-Chem
     A Quantum Leap Into The Future Of Chemistry


 Q-Chem 5.1, Q-Chem, Inc., Pleasanton, CA (2018)

 Yihan Shao,  Zhengting Gan,  E. Epifanovsky,  A. T. B. Gilbert,  M. Wormit,  
 J. Kussmann,  A. W. Lange,  A. Behn,  Jia Deng,  Xintian Feng,  D. Ghosh,  
 M. Goldey,  P. R. Horn,  L. D. Jacobson,  I. Kaliman,  T. Kus,  A. Landau,  
 Jie Liu,  E. I. Proynov,  R. M. Richard,  R. P. Steele,  E. J. Sundstrom,  
 H. L. Woodcock III,  P. M. Zimmerman,  D. Zuev,  B. Albrecht,  E. Alguire,  
 S. A. Baeppler,  D. Barton,  Z. Benda,  Y. A. Bernard,  E. J. Berquist,  
 K. B. Bravaya,  H. Burton,  D. Casanova,  Chun-Min Chang,  Yunqing Chen,  
 A. Chien,  K. D. Closser,  M. P. Coons,  S. Coriani,  S. Dasgupta,  
 A. L. Dempwolff,  M. Diedenhofen,  Hainam Do,  R. G. Edgar,  Po-Tung Fang,  
 S. Faraji,  S. Fatehi,  Qingguo Feng,  K. D. Fenk,  J. Fosso-Tande,  
 Qinghui Ge,  A. Ghysels,  G. Gidofalvi,  J. Gomes,  J. Gonthier,  A. Gunina,  
 M. W. D. Hanson-Heine,  P. H. P. Harbach,  A. W. Hauser,  J. E. Herr,  
 E. G. Hohenstein,  Z. C. Holden,  Kerwin Hui,  T.-C. Jagau,  Hyunjun Ji,  
 B. Kaduk,  K. Khistyaev,  Jaehoon Kim,  P. Klunzinger,  K. Koh,  
 D. Kosenkov,  L. Koulias,  T. Kowalczyk,  C. M. Krauter,  A. Kunitsa,  
 Ka Un Lao,  A. Laurent,  K. V. Lawler,  Joonho Lee,  D. Lefrancois,  
 S. Lehtola,  D. S. Levine,  Yi-Pei Li,  You-Sheng Lin,  Fenglai Liu,  
 E. Livshits,  A. Luenser,  P. Manohar,  E. Mansoor,  S. F. Manzer,  
 Shan-Ping Mao,  Yuezhi Mao,  N. Mardirossian,  A. V. Marenich,  
 T. Markovich,  L. A. Martinez-Martinez,  S. A. Maurer,  N. J. Mayhall,  
 S. C. McKenzie,  J.-M. Mewes,  A. F. Morrison,  J. W. Mullinax,  K. Nanda,  
 T. S. Nguyen-Beck,  R. Olivares-Amaya,  J. A. Parkhill,  T. M. Perrine,  
 F. Plasser,  P. Pokhilko,  S. Prager,  A. Prociuk,  E. Ramos,  D. R. Rehn,  
 F. Rob,  M. Schneider,  N. Sergueev,  S. M. Sharada,  S. Sharma,  
 D. W. Small,  T. Stauch,  T. Stein,  Yu-Chuan Su,  A. J. W. Thom,  
 A. Tkatchenko,  T. Tsuchimochi,  N. M. Tubman,  L. Vogt,  M. L. Vidal,  
 O. Vydrov,  M. A. Watson,  J. Wenzel,  M. de Wergifosse,  T. A. Wesolowski,  
 A. White,  J. Witte,  A. Yamada,  Jun Yang,  K. Yao,  S. Yeganeh,  
 S. R. Yost,  Zhi-Qiang You,  A. Zech,  Igor Ying Zhang,  Xing Zhang,  
 Yan Zhao,  Ying Zhu,  B. R. Brooks,  G. K. L. Chan,  C. J. Cramer,  
 M. S. Gordon,  W. J. Hehre,  A. Klamt,  M. W. Schmidt,  C. D. Sherrill,  
 D. G. Truhlar,  A. Aspuru-Guzik,  R. Baer,  A. T. Bell,  N. A. Besley,  
 Jeng-Da Chai,  R. A. DiStasio Jr.,  A. Dreuw,  B. D. Dunietz,  
 T. R. Furlani,  Chao-Ping Hsu,  Yousung Jung,  Jing Kong,  D. S. Lambrecht,  
 WanZhen Liang,  C. Ochsenfeld,  V. A. Rassolov,  L. V. Slipchenko,  
 J. E. Subotnik,  T. Van Voorhis,  J. M. Herbert,  A. I. Krylov,  
 P. M. W. Gill,  M. Head-Gordon

 Contributors to earlier versions of Q-Chem not listed above: 
 R. D. Adamson,  B. Austin,  J. Baker,  G. J. O. Beran,  K. Brandhorst,  
 S. T. Brown,  E. F. C. Byrd,  A. K. Chakraborty,  C.-L. Cheng,  
 Siu Hung Chien,  D. M. Chipman,  D. L. Crittenden,  H. Dachsel,  
 R. J. Doerksen,  A. D. Dutoi,  L. Fusti-Molnar,  W. A. Goddard III,  
 A. Golubeva-Zadorozhnaya,  S. R. Gwaltney,  G. Hawkins,  A. Heyden,  
 S. Hirata,  G. Kedziora,  F. J. Keil,  C. Kelley,  Jihan Kim,  R. A. King,  
 R. Z. Khaliullin,  P. P. Korambath,  W. Kurlancheek,  A. M. Lee,  M. S. Lee,  
 S. V. Levchenko,  Ching Yeh Lin,  D. Liotard,  R. C. Lochan,  I. Lotan,  
 P. E. Maslen,  N. Nair,  D. P. O'Neill,  D. Neuhauser,  E. Neuscamman,  
 C. M. Oana,  R. Olson,  B. Peters,  R. Peverati,  P. A. Pieniazek,  
 Y. M. Rhee,  J. Ritchie,  M. A. Rohrdanz,  E. Rosta,  N. J. Russ,  
 H. F. Schaefer III,  N. E. Schultz,  N. Shenvi,  A. C. Simmonett,  A. Sodt,  
 D. Stuck,  K. S. Thanthiriwatte,  V. Vanovschi,  Tao Wang,  A. Warshel,  
 C. F. Williams,  Q. Wu,  X. Xu,  W. Zhang

 Please cite Q-Chem as follows:
 Y. Shao et al., Mol. Phys. 113, 184-215 (2015)
 DOI: 10.1080/00268976.2014.952696

 Q-Chem 5.1.0 for Mac (Intel) OS X

 Parts of Q-Chem use Armadillo 8.300.2 (Tropical Shenanigans).
 http://arma.sourceforge.net/

 Q-Chem begins on Mon Sep 10 07:20:32 2018  

Annas-MacBook-Pro-3.local
Host: 0

     Scratch files written to /scratch/qchem1510//
Processing $rem in /Users/annakrylov/.qchemrc.
CC_MEMORY  4000
Core orbitals will be frozen

Checking the input file for inconsistencies... 	...done.

--------------------------------------------------------------
User input:
--------------------------------------------------------------
$comment
Optimized Cl-Bz, XAS
$end

$molecule
+1 2
 H        -2.1400320233    0.0000000000    0.5090177858
 C        -1.2120583232    0.0000000000   -0.0442490642
 C        -1.2042956497    0.0000000000   -1.4361358281
 H        -2.1437187877    0.0000000000   -1.9716770234
 C         0.0000000000    0.0000000000   -2.1351330277
 H         0.0000000000    0.0000000000   -3.2159870334
 C         1.2042956497    0.0000000000   -1.4361358281
 H         2.1437187877    0.0000000000   -1.9716770234
 C         1.2120583232    0.0000000000   -0.0442490642
 H         2.1400320233    0.0000000000    0.5090177858
 C         0.0000000000    0.0000000000    0.6386615242
 Cl        0.0000000000    0.0000000000    2.3695929760
$end

$rem
   JOB_TYPE  =  SP
   BASIS  =  aug-cc-pVDZ
   METHOD  =  EOM-CCSD
   CVS_EE_STATES = [5,0,5,5]   bright transitions only
!   CC_MEMORY = 80000
   cc_trans_prop = 1
$end

--------------------------------------------------------------
 ----------------------------------------------------------------
             Standard Nuclear Orientation (Angstroms)
    I     Atom           X                Y                Z
 ----------------------------------------------------------------
    1      H      -2.1400320233     0.0000000000     0.3814604176
    2      C      -1.2120583232     0.0000000000    -0.1718064324
    3      C      -1.2042956497     0.0000000000    -1.5636931963
    4      H      -2.1437187877     0.0000000000    -2.0992343916
    5      C      -0.0000000000     0.0000000000    -2.2626903959
    6      H      -0.0000000000     0.0000000000    -3.3435444016
    7      C       1.2042956497     0.0000000000    -1.5636931963
    8      H       2.1437187877     0.0000000000    -2.0992343916
    9      C       1.2120583232    -0.0000000000    -0.1718064324
   10      H       2.1400320233    -0.0000000000     0.3814604176
   11      C       0.0000000000    -0.0000000000     0.5111041560
   12      Cl      0.0000000000    -0.0000000000     2.2420356078
 ----------------------------------------------------------------
 Molecular Point Group                 C2v   NOp =  4
 Largest Abelian Subgroup              C2v   NOp =  4
 Nuclear Repulsion Energy =   316.4076139427 hartrees
 There are       29 alpha and       28 beta electrons
 Requested basis set is aug-cc-pVDZ
 There are 90 shells and 210 basis functions
MEM_TOTAL is adjusted to CC_MEMORY + MEM_STATIC!
 Total memory of 4192MB is distributed as follows: 
   QALLOC including MEM_STATIC uses 192MB
   MEM_STATIC is set to 192MB
   CCMAN JOB total memory use is  4000MB
 Warning: actual memory use might exceed 4192MB

 Total QAlloc Memory Limit    192 MB
 Mega-Array Size       188 MB
 MEM_STATIC part       192 MB

                       Distance Matrix (Angstroms)
             H (  1)   C (  2)   C (  3)   H (  4)   C (  5)   H (  6)
   C (  2)  1.080389
   C (  3)  2.158524  1.391908
   H (  4)  2.480698  2.140787  1.081351
   C (  5)  3.401657  2.416791  1.392453  2.149941
   H (  6)  4.295975  3.395439  2.148999  2.478677  1.080854
   C (  7)  3.868869  2.788569  2.408591  3.390576  1.392453  2.148999
   H (  8)  4.950189  3.869912  3.390576  4.287438  2.149941  2.478677
   C (  9)  3.397442  2.424117  2.788569  3.869912  2.416791  3.395439
   H ( 10)  4.280064  3.397442  3.868869  4.950189  3.401657  4.295975
   C ( 11)  2.143955  1.391205  2.398981  3.377780  2.773795  3.854649
   Cl( 12)  2.835750  2.701059  3.991729  4.841710  4.504726  5.585580
             C (  7)   H (  8)   C (  9)   H ( 10)   C ( 11)
   H (  8)  1.081351
   C (  9)  1.391908  2.140787
   H ( 10)  2.158524  2.480698  1.080389
   C ( 11)  2.398981  3.377780  1.391205  2.143955
   Cl( 12)  3.991729  4.841710  2.701059  2.835750  1.730931

 A cutoff of  1.0D-14 yielded   4083 shell pairs
 There are     22321 function pairs (     25433 Cartesian)
 Smallest overlap matrix eigenvalue = 2.25E-06

 Scale SEOQF with 1.000000e-01/1.000000e-01/1.000000e-01

 Standard Electronic Orientation quadrupole field applied
 Nucleus-field energy     =    -0.0000000161 hartrees
 Guess from superposition of atomic densities
 Warning:  Energy on first SCF cycle will be non-variational
 SAD guess density has 58.000000 electrons

 -----------------------------------------------------------------------
  General SCF calculation program by
  Eric Jon Sundstrom, Paul Horn, Yuezhi Mao, Dmitri Zuev, Alec White,
  David Stuck, Shaama M.S., Shane Yost, Joonho Lee, David Small,
  Daniel Levine, Susi Lehtola, Hugh Burton, Evgeny Epifanovsky
 -----------------------------------------------------------------------
 Hartree-Fock
 A unrestricted SCF calculation will be
 performed using DIIS
 SCF converges when DIIS error is below 1.0e-08
 ---------------------------------------
  Cycle       Energy         DIIS error
 ---------------------------------------
    1    -692.4629184719      2.22e-02  
    2    -689.2208960415      1.96e-03  
    3    -689.3214549460      1.09e-03  
    4    -689.3486643140      3.51e-04  
    5    -689.3535192742      1.21e-04  
    6    -689.3543955677      6.73e-05  
    7    -689.3549769757      4.13e-05  
    8    -689.3552832342      2.35e-05  
    9    -689.3553974404      1.83e-05  
   10    -689.3554840214      1.65e-05  
   11    -689.3555638826      1.54e-05  
   12    -689.3557108037      1.36e-05  
   13    -689.3559563715      8.27e-06  
   14    -689.3560130913      3.28e-06  
   15    -689.3560193347      1.21e-06  
   16    -689.3560197713      5.52e-07  
   17    -689.3560198281      2.78e-07  
   18    -689.3560198513      1.31e-07  
   19    -689.3560198293      6.44e-08  
   20    -689.3560198571      3.48e-08  
   21    -689.3560198396      1.24e-08  
   22    -689.3560198617      6.39e-09  Convergence criterion met
 ---------------------------------------
 SCF time:   CPU 251.24s  wall 253.00s 
 SCF   energy in the final basis set =     -689.3560198617
<S^2> =          0.919738069


 ------------------------------------------------------------------------------

   CCMAN2: suite of methods based on coupled cluster
           and equation of motion theories.

   Components:
   * libvmm-1.3-trunk
     by Evgeny Epifanovsky, Ilya Kaliman.
   * libtensor-2.5-trunk
     by Evgeny Epifanovsky, Michael Wormit, Dmitry Zuev, Sam Manzer, 
        Ilya Kaliman.
   * libcc-2.5-trunk
     by Evgeny Epifanovsky, Arik Landau, Tomasz Kus, Kirill Khistyaev, 
        Dmitry Zuev, Prashant Manohar, Xintian Feng, Anna Krylov, 
        Matthew Goldey, Alec White, Thomas Jagau, Kaushik Nanda, 
        Anastasia Gunina, Alexander Kunitsa, Joonho Lee.

   CCMAN original authors:
   Anna I. Krylov, C. David Sherrill, Steven R. Gwaltney,
   Edward F. C. Byrd (2000)
   Sergey V. Levchenko, Lyudmila V. Slipchenko, Tao Wang,
   Ana-Maria C. Cristian (2003)
   Piotr A. Pieniazek, C. Melania Oana, Evgeny Epifanovsky (2007)
   Prashant Manohar (2009)

 ------------------------------------------------------------------------------


 Calculation will run on 2 cores with 4000MB of RAM.


 Alpha MOs, Unrestricted
 -- Occupied --                  
-105.06  -11.58  -11.49  -11.48  -11.48  -11.46  -11.46  -10.78
  1 A1    2 A1    3 A1    1 B1    4 A1    2 B1    5 A1    6 A1                 
 -8.251  -8.250  -8.247  -1.434  -1.345  -1.251  -1.239  -1.069
  1 B2    7 A1    3 B1    8 A1    9 A1    4 B1   10 A1    5 B1                 
 -1.041  -0.928  -0.873  -0.854  -0.813  -0.811  -0.790  -0.728
 11 A1   12 A1    6 B1   13 A1   14 A1    7 B1    2 B2    8 B1                 
 -0.723  -0.688  -0.661  -0.595  -0.562
 15 A1    3 B2    9 B1    4 B2    1 A2                                         
 -- Virtual --                   
 -0.123  -0.089  -0.083  -0.065  -0.063  -0.043  -0.041  -0.028
  5 B2    2 A2   16 A1   10 B1   17 A1   18 A1   11 B1    6 B2                 
 -0.023  -0.021   0.003   0.003   0.008   0.014   0.026   0.028
 19 A1   20 A1    7 B2    3 A2   21 A1   12 B1   13 B1   22 A1                 
  0.035   0.041   0.042   0.042   0.054   0.056   0.056   0.063
 23 A1   14 B1    8 B2   24 A1    4 A2   25 A1   15 B1    9 B2                 
  0.071   0.074   0.075   0.102   0.107   0.136   0.137   0.149
 16 B1   10 B2   26 A1   17 B1   27 A1   28 A1   11 B2   29 A1                 
  0.160   0.162   0.171   0.182   0.185   0.185   0.195   0.207
 18 B1   19 B1   30 A1   20 B1   12 B2   31 A1   21 B1   32 A1                 
  0.227   0.228   0.242   0.251   0.253   0.265   0.272   0.273
 22 B1   33 A1   34 A1   23 B1    5 A2   35 A1   24 B1   36 A1                 
  0.280   0.284   0.296   0.343   0.347   0.369   0.375   0.392
 13 B2    6 A2   25 B1   37 A1    7 A2   38 A1   14 B2   39 A1                 
  0.400   0.401   0.402   0.413   0.415   0.436   0.447   0.468
 26 B1   40 A1   15 B2    8 A2   27 B1   41 A1   16 B2   28 B1                 
  0.471   0.495   0.496   0.506   0.506   0.521   0.531   0.546
 42 A1   17 B2   43 A1   29 B1   44 A1   30 B1   45 A1   31 B1                 
  0.555   0.560   0.576   0.583   0.602   0.607   0.620   0.620
  9 A2   46 A1   10 A2   18 B2   47 A1   32 B1   33 B1   48 A1                 
  0.638   0.657   0.676   0.683   0.694   0.707   0.727   0.728
 19 B2   34 B1   49 A1   35 B1   36 B1   20 B2   50 A1   11 A2                 
  0.740   0.742   0.760   0.769   0.780   0.793   0.800   0.801
 12 A2   21 B2   22 B2   23 B2   51 A1   37 B1   52 A1   13 A2                 
  0.806   0.837   0.890   0.915   0.917   0.946   0.964   0.989
 53 A1   54 A1   14 A2   55 A1   24 B2   38 B1   39 B1   40 B1                 
  0.997   1.008   1.087   1.159   1.207   1.209   1.236   1.272
 15 A2   25 B2   56 A1   41 B1   16 A2   26 B2   57 A1   17 A2                 
  1.274   1.279   1.284   1.285   1.317   1.336   1.354   1.365
 58 A1   27 B2   42 B1   59 A1   43 B1   60 A1   44 B1   61 A1                 
  1.396   1.406   1.414   1.430   1.440   1.447   1.456   1.468
 28 B2   62 A1   45 B1   63 A1   64 A1   46 B1   65 A1   47 B1                 
  1.470   1.500   1.506   1.523   1.576   1.578   1.621   1.668
 18 A2   29 B2   19 A2   30 B2   48 B1   66 A1   49 B1   67 A1                 
  1.683   1.690   1.725   1.738   1.739   1.760   1.762   1.805
 68 A1   20 A2   31 B2   69 A1   50 B1   51 B1   70 A1   32 B2                 
  1.836   1.837   1.901   1.911   1.915   1.916   1.969   1.971
 71 A1   52 B1   33 B2   72 A1   53 B1   21 A2   34 B2   22 A2                 
  1.993   2.040   2.069   2.074   2.079   2.136   2.141   2.163
 73 A1   54 B1   74 A1   55 B1   35 B2   75 A1   56 B1   23 A2                 
  2.178   2.210   2.237   2.386   2.421   2.508   2.588   2.600
 76 A1   57 B1   77 A1   24 A2   36 B2   58 B1   78 A1   79 A1                 
  2.612   2.715   2.724   2.770   2.899   2.926   2.964   2.969
 59 B1   60 B1   80 A1   81 A1   82 A1   61 B1   62 B1   83 A1                 
  3.132   3.216   3.385   3.611   4.367
 63 B1   84 A1   64 B1   85 A1   86 A1                                         

 Beta MOs, Unrestricted
 -- Occupied --                  
-105.06  -11.57  -11.47  -11.47  -11.47  -11.47  -11.47  -10.78
  1 A1    2 A1    3 A1    1 B1    4 A1    2 B1    5 A1    6 A1                 
 -8.250  -8.246  -8.243  -1.407  -1.332  -1.249  -1.198  -1.062
  7 A1    3 B1    1 B2    8 A1    9 A1    4 B1   10 A1    5 B1                 
 -1.027  -0.921  -0.868  -0.848  -0.812  -0.804  -0.725  -0.722
 11 A1   12 A1    6 B1   13 A1    7 B1   14 A1    8 B1   15 A1                 
 -0.708  -0.658  -0.638  -0.567
  2 B2    9 B1    3 B2    1 A2                                                 
 -- Virtual --                   
 -0.254  -0.083  -0.066  -0.065  -0.062  -0.049  -0.041  -0.041
  4 B2   16 A1    2 A2   10 B1   17 A1    5 B2   18 A1   11 B1                 
 -0.028  -0.020  -0.020   0.004   0.009   0.014   0.015   0.026
  6 B2   19 A1   20 A1    3 A2   21 A1   12 B1    7 B2   13 B1                 
  0.030   0.036   0.041   0.044   0.050   0.056   0.058   0.058
 22 A1   23 A1   14 B1   24 A1    8 B2   15 B1    4 A2   25 A1                 
  0.071   0.071   0.077   0.080   0.102   0.110   0.140   0.153
  9 B2   16 B1   26 A1   10 B2   17 B1   27 A1   28 A1   29 A1                 
  0.158   0.161   0.161   0.174   0.183   0.189   0.190   0.197
 18 B1   11 B2   19 B1   30 A1   20 B1   31 A1   12 B2   21 B1                 
  0.210   0.228   0.231   0.245   0.251   0.256   0.265   0.275
 32 A1   22 B1   33 A1   34 A1   23 B1    5 A2   35 A1   36 A1                 
  0.276   0.287   0.291   0.296   0.347   0.349   0.377   0.380
 24 B1    6 A2   13 B2   25 B1   37 A1    7 A2   14 B2   38 A1                 
  0.398   0.400   0.407   0.415   0.418   0.420   0.441   0.463
 26 B1   39 A1   40 A1   27 B1   15 B2    8 A2   41 A1   16 B2                 
  0.474   0.479   0.499   0.503   0.504   0.513   0.522   0.536
 28 B1   42 A1   43 A1   17 B2   29 B1   44 A1   30 B1   45 A1                 
  0.549   0.556   0.563   0.583   0.598   0.603   0.607   0.621
 31 B1    9 A2   46 A1   10 A2   18 B2   47 A1   32 B1   33 B1                 
  0.624   0.653   0.659   0.678   0.688   0.694   0.721   0.730
 48 A1   19 B2   34 B1   49 A1   35 B1   36 B1   20 B2   50 A1                 
  0.733   0.744   0.763   0.771   0.777   0.785   0.794   0.802
 11 A2   12 A2   21 B2   22 B2   23 B2   51 A1   37 B1   13 A2                 
  0.804   0.806   0.841   0.891   0.916   0.936   0.947   0.965
 52 A1   53 A1   54 A1   14 A2   55 A1   24 B2   38 B1   39 B1                 
  0.990   1.002   1.017   1.089   1.159   1.217   1.220   1.240
 40 B1   15 A2   25 B2   56 A1   41 B1   26 B2   16 A2   57 A1                 
  1.280   1.281   1.285   1.288   1.290   1.322   1.345   1.354
 58 A1   17 A2   42 B1   27 B2   59 A1   43 B1   60 A1   44 B1                 
  1.367   1.402   1.415   1.416   1.436   1.448   1.449   1.458
 61 A1   28 B2   45 B1   62 A1   63 A1   64 A1   46 B1   65 A1                 
  1.473   1.494   1.504   1.507   1.542   1.580   1.580   1.624
 47 B1   18 A2   29 B2   19 A2   30 B2   66 A1   48 B1   49 B1                 
  1.671   1.692   1.696   1.734   1.740   1.745   1.761   1.764
 67 A1   20 A2   68 A1   31 B2   50 B1   69 A1   51 B1   70 A1                 
  1.816   1.840   1.841   1.904   1.915   1.920   1.920   1.977
 32 B2   71 A1   52 B1   33 B2   53 B1   72 A1   21 A2   34 B2                 
  1.984   1.999   2.042   2.070   2.076   2.088   2.138   2.140
 22 A2   73 A1   54 B1   74 A1   55 B1   35 B2   75 A1   56 B1                 
  2.165   2.183   2.213   2.239   2.396   2.426   2.509   2.589
 23 A2   76 A1   57 B1   77 A1   24 A2   36 B2   58 B1   78 A1                 
  2.604   2.610   2.717   2.727   2.771   2.903   2.925   2.968
 79 A1   59 B1   60 B1   80 A1   81 A1   82 A1   61 B1   62 B1                 
  2.976   3.133   3.223   3.387   3.613   4.371
 83 A1   63 B1   84 A1   64 B1   85 A1   86 A1                                 

 Occupation and symmetry of molecular orbitals

 Point group: C2v (4 irreducible representations).

                           A1   A2   B1   B2    All 
 ----------------------------------------------------
 All molecular orbitals:
  - Alpha                  86   24   64   36    210 
  - Beta                   86   24   64   36    210 
 ----------------------------------------------------
 Alpha orbitals:
  - Frozen occupied        7    0    3    1     11  
  - Active occupied        8    1    6    3     18  
  - Active virtual         71   23   55   32    181 
  - Frozen virtual         0    0    0    0     0   
 ----------------------------------------------------
 Beta orbitals:
  - Frozen occupied        7    0    3    1     11  
  - Active occupied        8    1    6    2     17  
  - Active virtual         71   23   55   33    182 
  - Frozen virtual         0    0    0    0     0   
 ----------------------------------------------------

 Import integrals:   CPU 0.00 s  wall 0.00 s

 Import integrals:   CPU 275.12 s  wall 219.07 s

 MP2 amplitudes:   CPU 4.40 s  wall 4.19 s

           CCSD T amplitudes will be solved using DIIS.

           Start     Size      MaxIter   EConv     TConv     
           3         7         100       1.00e-06  1.00e-04  
 ------------------------------------------------------------------------------
           Energy (a.u.)   Ediff      Tdiff       Comment
 ------------------------------------------------------------------------------
          -690.25184658                           
     1    -690.27487561   2.30e-02   9.59e-01     
     2    -690.30177664   2.69e-02   1.21e-01     
     3    -690.30441028   2.63e-03   3.99e-02     
     4    -690.30804180   3.63e-03   1.59e-02     Switched to DIIS steps.
     5    -690.31062338   2.58e-03   1.57e-02     
     6    -690.31133242   7.09e-04   6.89e-03     
     7    -690.31157003   2.38e-04   3.74e-03     
     8    -690.31163918   6.91e-05   1.31e-03     
     9    -690.31165870   1.95e-05   5.18e-04     
    10    -690.31165900   3.10e-07   2.30e-04     
    11    -690.31165737   1.64e-06   1.69e-04     
    12    -690.31165756   1.95e-07   7.45e-05     
 ------------------------------------------------------------------------------
          -690.31165756                           CCSD T converged.

 SCF energy                 = -689.35601986
 MP2 energy                 = -690.25184658
 CCSD correlation energy     =   -0.95563770
 CCSD total energy           = -690.31165756

 CCSD  T1^2 = 0.0574  T2^2 = 0.3983  Leading amplitudes:

 Amplitude    Orbitals with energies
 -0.1119       2 (B2) B                  ->    4 (B2) B                   
              -0.7083                         -0.2545                     
 -0.1056       1 (A2) A                  ->    2 (A2) A                   
              -0.5623                         -0.0889                     
 -0.0817       1 (A2) B                  ->    2 (A2) B                   
              -0.5668                         -0.0665                     
  0.0660       3 (B2) B                  ->    4 (B2) B                   
              -0.6380                         -0.2545                     

 Amplitude    Orbitals with energies
  0.0719       1 (A2) A      1 (A2) B    ->    2 (A2) A      2 (A2) B     
              -0.5623       -0.5668           -0.0889       -0.0665       
 -0.0719       1 (A2) A      1 (A2) B    ->    2 (A2) B      2 (A2) A     
              -0.5623       -0.5668           -0.0665       -0.0889       
 -0.0719       1 (A2) B      1 (A2) A    ->    2 (A2) A      2 (A2) B     
              -0.5668       -0.5623           -0.0889       -0.0665       
  0.0719       1 (A2) B      1 (A2) A    ->    2 (A2) B      2 (A2) A     
              -0.5668       -0.5623           -0.0665       -0.0889       

 Computing CCSD intermediates for later calculations
 Finished.

           CCSD Lambda amplitudes will be solved using DIIS.
           Start     Size      MaxIter   EConv     LConv     
           3         7         100       1.00e-06  1.00e-04  
 ------------------------------------------------------------------------------
            Enorm      Ldiff       Comment
 ------------------------------------------------------------------------------
     1     7.19e-02   5.23e-02     
     2     1.73e-02   2.42e-03     
     3     7.98e-03   1.27e-03     
     4     4.60e-03   4.01e-04     Switched to DIIS steps.
     5     2.17e-03   1.36e-04     
     6     1.23e-03   6.81e-05     
     7     5.54e-04   1.51e-04     
     8     2.92e-04   5.89e-05     
     9     1.58e-04   1.12e-05     
    10     9.95e-05   6.63e-06     
    11     4.43e-05   1.26e-05     
    12     1.92e-05   6.83e-06     
    13     8.70e-06   2.01e-06     
    14     4.30e-06   9.57e-07     
    15     2.25e-06   3.65e-07     
    16     1.31e-06   1.92e-07     
    17     7.92e-07   1.09e-07     
 ------------------------------------------------------------------------------
                                   CCSD Lambda converged.

 CCSD calculation:   CPU 1933.77 s  wall 1441.36 s

        Solving for CVS-EOMEE-CCSD A1 transitions.

        CVS-EOMEE-CCSD/MP2 right amplitudes will be solved using Davidson.
        Amplitudes will be solved using standard  algorithm.
     Hard-coded thresholds: 
     LinDepThresh=1.00e-15  NormThresh=1.00e-06  ReorthogonThresh=1.00e-02

      Roots     MaxVec    MaxIter   Precond   Conv      Shift    
      5         120       60        1         1.00e-05  0.00e+00  
 ------------------------------------------------------------------------------
      Iter ConvRoots NVecs ResNorm Current eigenvalues (eV)
 ------------------------------------------------------------------------------
      0    0      5     9.51e-01   211.7951   217.3469   219.6472   219.6601   220.3242   
      1    0      10    3.78e+00   207.3573   212.8708   216.2240   216.2422   216.7819   
      2    0      15    3.20e-02   201.1538   206.3316   209.9403   209.9814   210.8298   
      3    0      20    1.11e-02   200.8321   205.9172   209.3540   209.4336   210.4705   
      4    0      25    2.20e-02   200.7439   205.8575   208.6161   208.9272   210.3506   
      5    0      30    2.51e-02   200.7087   205.8252   206.9247   207.7335   210.1234   
      6    0      35    3.91e-02   200.7009   205.8061   205.8770   206.9208   209.3034   
      7    0      40    1.91e-02   200.6998   205.0509   205.7815   206.1697   208.1673   
      8    1      45    7.26e-03   200.6978*  204.6840   205.5504   205.8651   207.6135   
      9    1      49    1.99e-03   200.6978*  204.5948   205.4164   205.8473   207.4211   
      10   1      53    9.76e-04   200.6978*  204.5711   205.3701   205.8432   207.3603   
      11   1      57    1.54e-04   200.6978*  204.5609   205.3487   205.8414   207.3435   
      12   2      61    4.41e-05   200.6978*  204.5583   205.3437   205.8410*  207.3407   
      13   3      64    8.27e-06   200.6978*  204.5583*  205.3436   205.8410*  207.3393   
      14   4      66    5.04e-06   200.6978*  204.5583*  205.3435*  205.8410*  207.3393   
      15   5      67    3.24e-06   200.6978*  204.5583*  205.3435*  205.8410*  207.3388*  

     Davidson procedure converged

 EOMEE transition 1/A1
 Total energy = -682.93614789 a.u.  Excitation energy = 200.6978 eV.
 R0^2 = 0.0000  R1^2 = 0.8553  R2_CCVV^2 = 0.0019  R2_COVV^2 = 0.0714  Res^2 = 6.13e-07
 Conv-d = yes

 Amplitude    Transitions between orbitals
 -0.8973       1 (B2) B                  ->    4 (B2) B                   
  0.1537       1 (B2) B                  ->    5 (B2) B                   
 -0.0878       1 (B2) B                  ->    11 (B2) B                  
 -0.0787       1 (B2) B                  ->    10 (B2) B                  

              Summary of significant orbitals:

               Number  Type             Irrep      Energy
               11      Occ  Beta        1 (B2)     -8.2430
               29      Vir  Beta        4 (B2)     -0.2545
               34      Vir  Beta        5 (B2)     -0.0489
               56      Vir  Beta       10 (B2)      0.0800
               62      Vir  Beta       11 (B2)      0.1605


 EOMEE transition 2/A1
 Total energy = -682.79427699 a.u.  Excitation energy = 204.5583 eV.
 R0^2 = 0.0000  R1^2 = 0.8865  R2_CCVV^2 = 0.0018  R2_COVV^2 = 0.0559  Res^2 = 4.02e-06
 Conv-d = yes

 Amplitude    Transitions between orbitals
  0.4252       7 (A1) A                  ->    19 (A1) A                  
 -0.3215       7 (A1) A                  ->    18 (A1) A                  
 -0.2918       7 (A1) B                  ->    19 (A1) B                  
  0.2553       7 (A1) A                  ->    21 (A1) A                  
 -0.2262       7 (A1) A                  ->    25 (A1) A                  
  0.1954       7 (A1) A                  ->    27 (A1) A                  
  0.1934       7 (A1) B                  ->    21 (A1) B                  
  0.1912       7 (A1) A                  ->    26 (A1) A                  
  0.1850       7 (A1) B                  ->    18 (A1) B                  
 -0.1808       7 (A1) B                  ->    25 (A1) B                  
 -0.1797       7 (A1) A                  ->    24 (A1) A                  
  0.1624       7 (A1) B                  ->    26 (A1) B                  
  0.1618       7 (A1) B                  ->    27 (A1) B                  
  0.1293       7 (A1) A                  ->    22 (A1) A                  
 -0.1190       7 (A1) B                  ->    24 (A1) B                  

              Summary of significant orbitals:

               Number  Type             Irrep      Energy
               10      Occ  Alpha       7 (A1)     -8.2500
               9       Occ  Beta        7 (A1)     -8.2502
               35      Vir  Alpha      18 (A1)     -0.0427
               38      Vir  Alpha      19 (A1)     -0.0235
               42      Vir  Alpha      21 (A1)      0.0080
               45      Vir  Alpha      22 (A1)      0.0278
               49      Vir  Alpha      24 (A1)      0.0425
               51      Vir  Alpha      25 (A1)      0.0556
               56      Vir  Alpha      26 (A1)      0.0752
               58      Vir  Alpha      27 (A1)      0.1075
               35      Vir  Beta       18 (A1)     -0.0412
               38      Vir  Beta       19 (A1)     -0.0202
               41      Vir  Beta       21 (A1)      0.0095
               48      Vir  Beta       24 (A1)      0.0442
               52      Vir  Beta       25 (A1)      0.0577
               55      Vir  Beta       26 (A1)      0.0768
               58      Vir  Beta       27 (A1)      0.1096


 EOMEE transition 3/A1
 Total energy = -682.76542368 a.u.  Excitation energy = 205.3435 eV.
 R0^2 = 0.0000  R1^2 = 0.8734  R2_CCVV^2 = 0.0020  R2_COVV^2 = 0.0623  Res^2 = 5.09e-06
 Conv-d = yes

 Amplitude    Transitions between orbitals
  0.4217       7 (A1) B                  ->    19 (A1) B                  
  0.3049       7 (A1) A                  ->    19 (A1) A                  
 -0.2682       7 (A1) B                  ->    18 (A1) B                  
 -0.2646       7 (A1) B                  ->    21 (A1) B                  
 -0.2344       7 (A1) A                  ->    18 (A1) A                  
  0.2338       7 (A1) B                  ->    25 (A1) B                  
 -0.2107       7 (A1) B                  ->    26 (A1) B                  
 -0.2026       7 (A1) B                  ->    27 (A1) B                  
 -0.2010       1 (B2) A                  ->    5 (B2) A                   
  0.1749       7 (A1) A                  ->    21 (A1) A                  
  0.1536       7 (A1) B                  ->    24 (A1) B                  
 -0.1466       7 (A1) A                  ->    25 (A1) A                  
  0.1245       7 (A1) A                  ->    26 (A1) A                  
  0.1226       7 (A1) A                  ->    27 (A1) A                  
 -0.1162       7 (A1) A                  ->    24 (A1) A                  
 -0.1108       7 (A1) B                  ->    22 (A1) B                  

              Summary of significant orbitals:

               Number  Type             Irrep      Energy
               10      Occ  Alpha       7 (A1)     -8.2500
               9       Occ  Alpha       1 (B2)     -8.2506
               9       Occ  Beta        7 (A1)     -8.2502
               35      Vir  Alpha      18 (A1)     -0.0427
               38      Vir  Alpha      19 (A1)     -0.0235
               42      Vir  Alpha      21 (A1)      0.0080
               49      Vir  Alpha      24 (A1)      0.0425
               51      Vir  Alpha      25 (A1)      0.0556
               56      Vir  Alpha      26 (A1)      0.0752
               58      Vir  Alpha      27 (A1)      0.1075
               30      Vir  Alpha       5 (B2)     -0.1234
               35      Vir  Beta       18 (A1)     -0.0412
               38      Vir  Beta       19 (A1)     -0.0202
               41      Vir  Beta       21 (A1)      0.0095
               45      Vir  Beta       22 (A1)      0.0297
               48      Vir  Beta       24 (A1)      0.0442
               52      Vir  Beta       25 (A1)      0.0577
               55      Vir  Beta       26 (A1)      0.0768
               58      Vir  Beta       27 (A1)      0.1096


 EOMEE transition 4/A1
 Total energy = -682.74713989 a.u.  Excitation energy = 205.8410 eV.
 R0^2 = 0.0000  R1^2 = 0.8353  R2_CCVV^2 = 0.0019  R2_COVV^2 = 0.0814  Res^2 = 5.26e-07
 Conv-d = yes

 Amplitude    Transitions between orbitals
  0.8753       1 (B2) A                  ->    5 (B2) A                   
  0.0897       1 (B2) A                  ->    8 (B2) A                   
  0.0890       1 (B2) A                  ->    11 (B2) A                  
  0.0879       7 (A1) B                  ->    19 (A1) B                  

              Summary of significant orbitals:

               Number  Type             Irrep      Energy
               9       Occ  Alpha       1 (B2)     -8.2506
               9       Occ  Beta        7 (A1)     -8.2502
               30      Vir  Alpha       5 (B2)     -0.1234
               48      Vir  Alpha       8 (B2)      0.0421
               60      Vir  Alpha      11 (B2)      0.1367
               38      Vir  Beta       19 (A1)     -0.0202


 EOMEE transition 5/A1
 Total energy = -682.69209543 a.u.  Excitation energy = 207.3388 eV.
 R0^2 = 0.0000  R1^2 = 0.8218  R2_CCVV^2 = 0.0018  R2_COVV^2 = 0.0882  Res^2 = 5.97e-06
 Conv-d = yes

 Amplitude    Transitions between orbitals
 -0.8118       1 (B2) B                  ->    5 (B2) B                   
 -0.1871       1 (B2) B                  ->    8 (B2) B                   
 -0.1796       1 (B2) B                  ->    4 (B2) B                   
  0.1625       1 (B2) B                  ->    11 (B2) B                  
  0.1521       1 (B2) B                  ->    7 (B2) B                   
  0.1318       1 (B2) B                  ->    10 (B2) B                  
 -0.1297       1 (B2) B                  ->    9 (B2) B                   

              Summary of significant orbitals:

               Number  Type             Irrep      Energy
               11      Occ  Beta        1 (B2)     -8.2430
               29      Vir  Beta        4 (B2)     -0.2545
               34      Vir  Beta        5 (B2)     -0.0489
               43      Vir  Beta        7 (B2)      0.0146
               49      Vir  Beta        8 (B2)      0.0496
               53      Vir  Beta        9 (B2)      0.0709
               56      Vir  Beta       10 (B2)      0.0800
               62      Vir  Beta       11 (B2)      0.1605


      CVS-EOM-CCSD/MP2 left amplitudes will be solved using Davidson.
        Amplitudes will be solved using MOM  algorithm.
     Hard-coded thresholds: 
     LinDepThresh=1.00e-15  NormThresh=1.00e-06  ReorthogonThresh=1.00e-02

      Roots     MaxVec    MaxIter   Precond   Conv      Shift    
      5         120       60        1         1.00e-05  0.00e+00  
 ------------------------------------------------------------------------------
      Iter ConvRoots NVecs ResNorm Current eigenvalues (eV)
 ------------------------------------------------------------------------------
      0    0      5     2.15e-02   200.6978   204.5583   205.3435   205.8410   207.3388   
      1    0      10    5.94e-02   200.6978   204.5583   205.3434   205.8410   207.3388   
      2    0      15    9.10e-04   200.6978   204.5583   205.3434   205.8410   207.3388   
      3    0      20    1.35e-04   200.6978   204.5583   205.3434   205.8410   207.3387   
      4    0      25    2.02e-05   200.6978   204.5583   205.3434   205.8410   207.3387   
      5    4      30    5.14e-06   200.6978*  204.5583*  205.3434*  205.8410   207.3387*  
      6    5      31    3.62e-06   200.6978*  204.5583*  205.3434*  205.8410*  207.3387*  

     Davidson procedure converged

        Solving for CVS-EOMEE-CCSD B1 transitions.

        CVS-EOMEE-CCSD/MP2 right amplitudes will be solved using Davidson.
        Amplitudes will be solved using standard  algorithm.
     Hard-coded thresholds: 
     LinDepThresh=1.00e-15  NormThresh=1.00e-06  ReorthogonThresh=1.00e-02

      Roots     MaxVec    MaxIter   Precond   Conv      Shift    
      5         120       60        1         1.00e-05  0.00e+00  
 ------------------------------------------------------------------------------
      Iter ConvRoots NVecs ResNorm Current eigenvalues (eV)
 ------------------------------------------------------------------------------
      0    0      5     9.56e-01   218.8586   219.1908   219.4221   219.5640   220.5842   
      1    0      10    3.55e+00   214.6998   214.8824   215.3494   215.9487   216.9692   
      2    0      15    3.03e-02   208.0853   208.1328   209.4224   209.8190   210.8102   
      3    0      20    1.20e-02   207.7283   207.7484   208.9844   209.2604   210.2112   
Found complex roots...
      4    0      25    5.02e-02   207.6812   207.6812   207.7928   208.5635   208.7978   
      5    0      29    2.11e-02   205.6532   206.9891   207.6575   207.6818   208.5110   
      6    0      34    1.31e-02   205.1253   206.0234   207.6519   207.6580   208.4584   
      7    0      39    6.87e-03   204.9036   205.1641   207.6492   207.6519   208.4489   
      8    0      44    1.81e-03   204.7128   204.9325   207.6497   207.6512   208.4371   
      9    1      49    5.20e-04   204.6288   204.9125   207.6483   207.6510*  208.4291   
      10   2      53    2.69e-04   204.6040   204.9085   207.6473*  207.6511*  208.4276   
      11   2      56    7.95e-05   204.5936   204.9061   207.6473*  207.6511*  208.4234   
      12   3      59    8.56e-05   204.5915   204.9056*  207.6473*  207.6511*  208.4180   
      13   4      61    4.88e-05   204.5911*  204.9056*  207.6473*  207.6511*  208.4118   
      14   4      62    4.66e-05   204.5908*  204.9055*  207.6473*  207.6511*  208.4063   
      15   4      63    2.08e-05   204.5907*  204.9055*  207.6473*  207.6511*  208.4033   
      16   4      64    1.18e-05   204.5907*  204.9055*  207.6473*  207.6511*  208.4019   
      17   4      65    6.59e-06   204.5907*  204.9055*  207.6473*  207.6511*  208.4017   
      18   5      66    4.88e-06   204.5908*  204.9055*  207.6473*  207.6511*  208.4016*  

     Davidson procedure converged

 EOMEE transition 1/B1
 Total energy = -682.79308525 a.u.  Excitation energy = 204.5908 eV.
 R0^2 = 0.0000  R1^2 = 0.8838  R2_CCVV^2 = 0.0019  R2_COVV^2 = 0.0571  Res^2 = 2.06e-06
 Conv-d = yes

 Amplitude    Transitions between orbitals
  0.5073       3 (B1) A                  ->    19 (A1) A                  
 -0.3866       3 (B1) A                  ->    18 (A1) A                  
  0.3004       3 (B1) A                  ->    21 (A1) A                  
 -0.2647       3 (B1) A                  ->    25 (A1) A                  
  0.2288       3 (B1) A                  ->    27 (A1) A                  
  0.2234       3 (B1) A                  ->    26 (A1) A                  
 -0.2108       3 (B1) A                  ->    24 (A1) A                  
  0.1511       3 (B1) A                  ->    22 (A1) A                  
 -0.1402       3 (B1) B                  ->    19 (A1) B                  
  0.1025       3 (B1) A                  ->    16 (A1) A                  

              Summary of significant orbitals:

               Number  Type             Irrep      Energy
               11      Occ  Alpha       3 (B1)     -8.2467
               10      Occ  Beta        3 (B1)     -8.2458
               32      Vir  Alpha      16 (A1)     -0.0832
               35      Vir  Alpha      18 (A1)     -0.0427
               38      Vir  Alpha      19 (A1)     -0.0235
               42      Vir  Alpha      21 (A1)      0.0080
               45      Vir  Alpha      22 (A1)      0.0278
               49      Vir  Alpha      24 (A1)      0.0425
               51      Vir  Alpha      25 (A1)      0.0556
               56      Vir  Alpha      26 (A1)      0.0752
               58      Vir  Alpha      27 (A1)      0.1075
               38      Vir  Beta       19 (A1)     -0.0202


 EOMEE transition 2/B1
 Total energy = -682.78151740 a.u.  Excitation energy = 204.9055 eV.
 R0^2 = 0.0000  R1^2 = 0.8821  R2_CCVV^2 = 0.0020  R2_COVV^2 = 0.0580  Res^2 = 3.90e-06
 Conv-d = yes

 Amplitude    Transitions between orbitals
 -0.5010       3 (B1) B                  ->    19 (A1) B                  
  0.3213       3 (B1) B                  ->    21 (A1) B                  
  0.3188       3 (B1) B                  ->    18 (A1) B                  
 -0.2911       3 (B1) B                  ->    25 (A1) B                  
  0.2619       3 (B1) B                  ->    26 (A1) B                  
  0.2566       3 (B1) B                  ->    27 (A1) B                  
 -0.1929       3 (B1) B                  ->    24 (A1) B                  
 -0.1465       3 (B1) A                  ->    19 (A1) A                  
  0.1389       3 (B1) B                  ->    22 (A1) B                  
 -0.1087       3 (B1) B                  ->    16 (A1) B                  
  0.1087       3 (B1) A                  ->    18 (A1) A                  

              Summary of significant orbitals:

               Number  Type             Irrep      Energy
               11      Occ  Alpha       3 (B1)     -8.2467
               10      Occ  Beta        3 (B1)     -8.2458
               35      Vir  Alpha      18 (A1)     -0.0427
               38      Vir  Alpha      19 (A1)     -0.0235
               30      Vir  Beta       16 (A1)     -0.0829
               35      Vir  Beta       18 (A1)     -0.0412
               38      Vir  Beta       19 (A1)     -0.0202
               41      Vir  Beta       21 (A1)      0.0095
               45      Vir  Beta       22 (A1)      0.0297
               48      Vir  Beta       24 (A1)      0.0442
               52      Vir  Beta       25 (A1)      0.0577
               55      Vir  Beta       26 (A1)      0.0768
               58      Vir  Beta       27 (A1)      0.1096


 EOMEE transition 3/B1
 Total energy = -682.68076037 a.u.  Excitation energy = 207.6473 eV.
 R0^2 = 0.0000  R1^2 = 0.8248  R2_CCVV^2 = 0.0018  R2_COVV^2 = 0.0867  Res^2 = 6.75e-06
 Conv-d = yes

 Amplitude    Transitions between orbitals
  0.8505       1 (B2) B                  ->    2 (A2) B                   
 -0.2653       1 (B2) A                  ->    2 (A2) A                   
 -0.1438       1 (B2) B                  ->    4 (A2) B                   
  0.0503       1 (B2) B                  ->    5 (A2) B                   

              Summary of significant orbitals:

               Number  Type             Irrep      Energy
               9       Occ  Alpha       1 (B2)     -8.2506
               11      Occ  Beta        1 (B2)     -8.2430
               31      Vir  Alpha       2 (A2)     -0.0889
               31      Vir  Beta        2 (A2)     -0.0665
               51      Vir  Beta        4 (A2)      0.0577
               74      Vir  Beta        5 (A2)      0.2556


 EOMEE transition 4/B1
 Total energy = -682.68062010 a.u.  Excitation energy = 207.6511 eV.
 R0^2 = 0.0000  R1^2 = 0.8211  R2_CCVV^2 = 0.0019  R2_COVV^2 = 0.0885  Res^2 = 2.19e-06
 Conv-d = yes

 Amplitude    Transitions between orbitals
 -0.8773       1 (B2) A                  ->    2 (A2) A                   
  0.1662       1 (B2) B                  ->    2 (A2) B                   
 -0.1044       1 (B2) A                  ->    4 (A2) A                   
 -0.0738       1 (B2) A                  ->    3 (A2) A                   

              Summary of significant orbitals:

               Number  Type             Irrep      Energy
               9       Occ  Alpha       1 (B2)     -8.2506
               11      Occ  Beta        1 (B2)     -8.2430
               31      Vir  Alpha       2 (A2)     -0.0889
               41      Vir  Alpha       3 (A2)      0.0030
               50      Vir  Alpha       4 (A2)      0.0537
               31      Vir  Beta        2 (A2)     -0.0665


 EOMEE transition 5/B1
 Total energy = -682.65303822 a.u.  Excitation energy = 208.4016 eV.
 R0^2 = 0.0000  R1^2 = 0.8631  R2_CCVV^2 = 0.0020  R2_COVV^2 = 0.0675  Res^2 = 9.52e-06
 Conv-d = yes

 Amplitude    Transitions between orbitals
 -0.4778       3 (B1) A                  ->    16 (A1) A                  
  0.4609       3 (B1) A                  ->    17 (A1) A                  
 -0.2854       3 (B1) A                  ->    21 (A1) A                  
 -0.2568       3 (B1) A                  ->    18 (A1) A                  
  0.2423       3 (B1) B                  ->    16 (A1) B                  
 -0.2345       3 (B1) B                  ->    17 (A1) B                  
 -0.1499       3 (B1) B                  ->    21 (A1) B                  
  0.1401       3 (B1) B                  ->    18 (A1) B                  
 -0.1204       3 (B1) A                  ->    25 (A1) A                  
 -0.1148       3 (B1) A                  ->    28 (A1) A                  
 -0.1124       3 (B1) A                  ->    23 (A1) A                  

              Summary of significant orbitals:

               Number  Type             Irrep      Energy
               11      Occ  Alpha       3 (B1)     -8.2467
               10      Occ  Beta        3 (B1)     -8.2458
               32      Vir  Alpha      16 (A1)     -0.0832
               34      Vir  Alpha      17 (A1)     -0.0628
               35      Vir  Alpha      18 (A1)     -0.0427
               42      Vir  Alpha      21 (A1)      0.0080
               46      Vir  Alpha      23 (A1)      0.0350
               51      Vir  Alpha      25 (A1)      0.0556
               59      Vir  Alpha      28 (A1)      0.1365
               30      Vir  Beta       16 (A1)     -0.0829
               33      Vir  Beta       17 (A1)     -0.0621
               35      Vir  Beta       18 (A1)     -0.0412
               41      Vir  Beta       21 (A1)      0.0095


      CVS-EOM-CCSD/MP2 left amplitudes will be solved using Davidson.
        Amplitudes will be solved using MOM  algorithm.
     Hard-coded thresholds: 
     LinDepThresh=1.00e-15  NormThresh=1.00e-06  ReorthogonThresh=1.00e-02

      Roots     MaxVec    MaxIter   Precond   Conv      Shift    
      5         120       60        1         1.00e-05  0.00e+00  
 ------------------------------------------------------------------------------
      Iter ConvRoots NVecs ResNorm Current eigenvalues (eV)
 ------------------------------------------------------------------------------
      0    0      5     2.01e-02   204.5908   204.9055   207.6473   207.6511   208.4016   
      1    0      10    5.32e-02   204.5909   204.9056   207.6474   207.6511   208.4014   
      2    0      15    6.87e-04   204.5909   204.9056   207.6474   207.6510   208.4015   
      3    0      20    1.32e-04   204.5909   204.9056   207.6473   207.6510   208.4015   
      4    1      25    1.45e-05   204.5909   204.9056   207.6473   207.6510   208.4015*  
      5    4      29    6.45e-06   204.5909*  204.9056*  207.6472*  207.6509   208.4015*  
      6    5      30    4.48e-06   204.5909*  204.9056*  207.6472*  207.6509*  208.4015*  

     Davidson procedure converged

        Solving for CVS-EOMEE-CCSD B2 transitions.

        CVS-EOMEE-CCSD/MP2 right amplitudes will be solved using Davidson.
        Amplitudes will be solved using standard  algorithm.
     Hard-coded thresholds: 
     LinDepThresh=1.00e-15  NormThresh=1.00e-06  ReorthogonThresh=1.00e-02

      Roots     MaxVec    MaxIter   Precond   Conv      Shift    
      5         120       60        1         1.00e-05  0.00e+00  
 ------------------------------------------------------------------------------
      Iter ConvRoots NVecs ResNorm Current eigenvalues (eV)
 ------------------------------------------------------------------------------
      0    0      5     9.81e-01   211.9155   217.2719   219.2929   219.4586   219.6913   
      1    0      10    3.98e+00   207.7036   212.9802   214.7176   215.8515   216.1050   
      2    0      15    3.19e-02   201.2874   206.3386   208.0411   209.7678   209.9083   
Found complex roots...
      3    0      20    1.07e-02   200.9474   205.9313   207.6637   209.2340   209.3253   
      4    0      25    2.20e-02   200.8575   205.8705   207.6148   208.6087   208.6539   
      5    0      30    2.23e-02   200.8237   205.8426   207.0636   207.2074   207.5931   
      6    0      35    1.84e-02   200.8158   205.8288   206.0932   206.3327   207.5878   
      7    0      40    1.28e-02   200.8147   205.1793   205.4803   205.8337   207.5887   
      8    2      45    3.46e-03   200.8126*  204.7954   205.0487   205.8312   207.5879*  
      9    3      48    1.05e-03   200.8126*  204.6919   204.9279   205.8308*  207.5878*  
      10   3      50    5.42e-04   200.8126*  204.6625   204.8920   205.8308*  207.5878*  
      11   3      52    7.56e-05   200.8126*  204.6508   204.8767   205.8307*  207.5878*  
      12   3      54    2.06e-05   200.8126*  204.6478   204.8729   205.8307*  207.5878*  
      13   5      56    6.08e-06   200.8126*  204.6478*  204.8731*  205.8307*  207.5878*  

     Davidson procedure converged

 EOMEE transition 1/B2
 Total energy = -682.93192985 a.u.  Excitation energy = 200.8126 eV.
 R0^2 = 0.0000  R1^2 = 0.8536  R2_CCVV^2 = 0.0018  R2_COVV^2 = 0.0723  Res^2 = 8.66e-06
 Conv-d = yes

 Amplitude    Transitions between orbitals
 -0.8967       7 (A1) B                  ->    4 (B2) B                   
  0.1551       7 (A1) B                  ->    5 (B2) B                   
 -0.0896       7 (A1) B                  ->    11 (B2) B                  
 -0.0813       7 (A1) B                  ->    10 (B2) B                  

              Summary of significant orbitals:

               Number  Type             Irrep      Energy
               9       Occ  Beta        7 (A1)     -8.2502
               29      Vir  Beta        4 (B2)     -0.2545
               34      Vir  Beta        5 (B2)     -0.0489
               56      Vir  Beta       10 (B2)      0.0800
               62      Vir  Beta       11 (B2)      0.1605


 EOMEE transition 2/B2
 Total energy = -682.79098922 a.u.  Excitation energy = 204.6478 eV.
 R0^2 = 0.0000  R1^2 = 0.8814  R2_CCVV^2 = 0.0019  R2_COVV^2 = 0.0584  Res^2 = 5.02e-06
 Conv-d = yes

 Amplitude    Transitions between orbitals
  0.4807       1 (B2) A                  ->    19 (A1) A                  
 -0.3659       1 (B2) A                  ->    18 (A1) A                  
  0.2854       1 (B2) A                  ->    21 (A1) A                  
 -0.2538       1 (B2) A                  ->    25 (A1) A                  
  0.2173       1 (B2) A                  ->    27 (A1) A                  
  0.2140       1 (B2) A                  ->    26 (A1) A                  
 -0.2069       1 (B2) B                  ->    19 (A1) B                  
 -0.1992       1 (B2) A                  ->    24 (A1) A                  
  0.1437       1 (B2) A                  ->    22 (A1) A                  
  0.1337       1 (B2) B                  ->    18 (A1) B                  
  0.1309       1 (B2) B                  ->    21 (A1) B                  
 -0.1250       1 (B2) B                  ->    25 (A1) B                  
  0.1113       1 (B2) B                  ->    26 (A1) B                  
  0.1105       1 (B2) B                  ->    27 (A1) B                  

              Summary of significant orbitals:

               Number  Type             Irrep      Energy
               9       Occ  Alpha       1 (B2)     -8.2506
               11      Occ  Beta        1 (B2)     -8.2430
               35      Vir  Alpha      18 (A1)     -0.0427
               38      Vir  Alpha      19 (A1)     -0.0235
               42      Vir  Alpha      21 (A1)      0.0080
               45      Vir  Alpha      22 (A1)      0.0278
               49      Vir  Alpha      24 (A1)      0.0425
               51      Vir  Alpha      25 (A1)      0.0556
               56      Vir  Alpha      26 (A1)      0.0752
               58      Vir  Alpha      27 (A1)      0.1075
               35      Vir  Beta       18 (A1)     -0.0412
               38      Vir  Beta       19 (A1)     -0.0202
               41      Vir  Beta       21 (A1)      0.0095
               52      Vir  Beta       25 (A1)      0.0577
               55      Vir  Beta       26 (A1)      0.0768
               58      Vir  Beta       27 (A1)      0.1096


 EOMEE transition 3/B2
 Total energy = -682.78271119 a.u.  Excitation energy = 204.8731 eV.
 R0^2 = 0.0000  R1^2 = 0.8822  R2_CCVV^2 = 0.0020  R2_COVV^2 = 0.0579  Res^2 = 6.57e-06
 Conv-d = yes

 Amplitude    Transitions between orbitals
 -0.4782       1 (B2) B                  ->    19 (A1) B                  
  0.3083       1 (B2) B                  ->    21 (A1) B                  
  0.3029       1 (B2) B                  ->    18 (A1) B                  
 -0.2787       1 (B2) B                  ->    25 (A1) B                  
  0.2511       1 (B2) B                  ->    26 (A1) B                  
  0.2436       1 (B2) B                  ->    27 (A1) B                  
 -0.2104       1 (B2) A                  ->    19 (A1) A                  
 -0.1828       1 (B2) B                  ->    24 (A1) B                  
  0.1573       1 (B2) A                  ->    18 (A1) A                  
  0.1337       1 (B2) B                  ->    22 (A1) B                  
 -0.1270       1 (B2) A                  ->    21 (A1) A                  
  0.1065       1 (B2) A                  ->    25 (A1) A                  
 -0.1047       1 (B2) B                  ->    16 (A1) B                  

              Summary of significant orbitals:

               Number  Type             Irrep      Energy
               9       Occ  Alpha       1 (B2)     -8.2506
               11      Occ  Beta        1 (B2)     -8.2430
               35      Vir  Alpha      18 (A1)     -0.0427
               38      Vir  Alpha      19 (A1)     -0.0235
               42      Vir  Alpha      21 (A1)      0.0080
               51      Vir  Alpha      25 (A1)      0.0556
               30      Vir  Beta       16 (A1)     -0.0829
               35      Vir  Beta       18 (A1)     -0.0412
               38      Vir  Beta       19 (A1)     -0.0202
               41      Vir  Beta       21 (A1)      0.0095
               45      Vir  Beta       22 (A1)      0.0297
               48      Vir  Beta       24 (A1)      0.0442
               52      Vir  Beta       25 (A1)      0.0577
               55      Vir  Beta       26 (A1)      0.0768
               58      Vir  Beta       27 (A1)      0.1096


 EOMEE transition 4/B2
 Total energy = -682.74751783 a.u.  Excitation energy = 205.8307 eV.
 R0^2 = 0.0000  R1^2 = 0.8355  R2_CCVV^2 = 0.0018  R2_COVV^2 = 0.0813  Res^2 = 4.02e-06
 Conv-d = yes

 Amplitude    Transitions between orbitals
  0.8914       7 (A1) A                  ->    5 (B2) A                   
  0.0925       7 (A1) A                  ->    11 (B2) A                  
  0.0897       7 (A1) A                  ->    8 (B2) A                   
 -0.0886       7 (A1) A                  ->    6 (B2) A                   

              Summary of significant orbitals:

               Number  Type             Irrep      Energy
               10      Occ  Alpha       7 (A1)     -8.2500
               30      Vir  Alpha       5 (B2)     -0.1234
               37      Vir  Alpha       6 (B2)     -0.0277
               48      Vir  Alpha       8 (B2)      0.0421
               60      Vir  Alpha      11 (B2)      0.1367


 EOMEE transition 5/B2
 Total energy = -682.68294458 a.u.  Excitation energy = 207.5878 eV.
 R0^2 = 0.0000  R1^2 = 0.8236  R2_CCVV^2 = 0.0019  R2_COVV^2 = 0.0873  Res^2 = 6.14e-06
 Conv-d = yes

 Amplitude    Transitions between orbitals
  0.8945       3 (B1) A                  ->    2 (A2) A                   
  0.1061       3 (B1) A                  ->    4 (A2) A                   
  0.0744       3 (B1) A                  ->    3 (A2) A                   
  0.0599       3 (B1) A                  ->    5 (A2) A                   

              Summary of significant orbitals:

               Number  Type             Irrep      Energy
               11      Occ  Alpha       3 (B1)     -8.2467
               31      Vir  Alpha       2 (A2)     -0.0889
               41      Vir  Alpha       3 (A2)      0.0030
               50      Vir  Alpha       4 (A2)      0.0537
               74      Vir  Alpha       5 (A2)      0.2534


      CVS-EOM-CCSD/MP2 left amplitudes will be solved using Davidson.
        Amplitudes will be solved using MOM  algorithm.
     Hard-coded thresholds: 
     LinDepThresh=1.00e-15  NormThresh=1.00e-06  ReorthogonThresh=1.00e-02

      Roots     MaxVec    MaxIter   Precond   Conv      Shift    
      5         120       60        1         1.00e-05  0.00e+00  
 ------------------------------------------------------------------------------
      Iter ConvRoots NVecs ResNorm Current eigenvalues (eV)
 ------------------------------------------------------------------------------
      0    0      5     2.15e-02   200.8126   204.6478   204.8731   205.8307   207.5878   
      1    0      10    5.37e-02   200.8129   204.6477   204.8729   205.8307   207.5878   
      2    0      15    1.07e-03   200.8129   204.6477   204.8730   205.8307   207.5877   
      3    0      20    1.35e-04   200.8127   204.6477   204.8729   205.8307   207.5876   
      4    0      25    2.77e-05   200.8127   204.6477   204.8729   205.8307   207.5875   
      5    4      30    6.79e-06   200.8127*  204.6477*  204.8729*  205.8306*  207.5875   
      6    5      31    5.53e-06   200.8127*  204.6477*  204.8729*  205.8306*  207.5875*  

     Davidson procedure converged

 CVS-EOMEE-CCSD calculation:   CPU 35640.13 s  wall 33844.25 s


 Start computing the transition properties

 ------------------------------------------------------------------------------
 State A: ccsd: 0/A1
 State B: cvs_eomee_ccsd/uhfref: 1/A1
 Transition dipole moment (a.u.):
   A->B: 0.004914 (X 0.000000, Y 0.000000, Z 0.004914)
   B->A: 0.004906 (X 0.000000, Y 0.000000, Z 0.004906)
 Oscillator strength (a.u.): 0.000119
 Norm of one-particle transition density matrix:
   A->B: 0.896440;   B->A: 0.916133
   ||gamma^AB||*||gamma^BA||: 0.821259

 ------------------------------------------------------------------------------
 State A: ccsd: 0/A1
 State B: cvs_eomee_ccsd/uhfref: 2/A1
 Transition dipole moment (a.u.):
   A->B: 0.000949 (X 0.000000, Y 0.000000, Z -0.000949)
   B->A: 0.000762 (X 0.000000, Y 0.000000, Z -0.000762)
 Oscillator strength (a.u.): 0.000004
 Norm of one-particle transition density matrix:
   A->B: 0.912366;   B->A: 0.925893
   ||gamma^AB||*||gamma^BA||: 0.844753

 ------------------------------------------------------------------------------
 State A: ccsd: 0/A1
 State B: cvs_eomee_ccsd/uhfref: 3/A1
 Transition dipole moment (a.u.):
   A->B: 0.002532 (X 0.000000, Y 0.000000, Z -0.002532)
   B->A: 0.002597 (X 0.000000, Y 0.000000, Z -0.002597)
 Oscillator strength (a.u.): 0.000033
 Norm of one-particle transition density matrix:
   A->B: 0.908620;   B->A: 0.918074
   ||gamma^AB||*||gamma^BA||: 0.834180

 ------------------------------------------------------------------------------
 State A: ccsd: 0/A1
 State B: cvs_eomee_ccsd/uhfref: 4/A1
 Transition dipole moment (a.u.):
   A->B: 0.009204 (X 0.000000, Y 0.000000, Z -0.009204)
   B->A: 0.009317 (X 0.000000, Y 0.000000, Z -0.009317)
 Oscillator strength (a.u.): 0.000432
 Norm of one-particle transition density matrix:
   A->B: 0.878809;   B->A: 0.893015
   ||gamma^AB||*||gamma^BA||: 0.784790

 ------------------------------------------------------------------------------
 State A: ccsd: 0/A1
 State B: cvs_eomee_ccsd/uhfref: 5/A1
 Transition dipole moment (a.u.):
   A->B: 0.008491 (X 0.000000, Y 0.000000, Z -0.008491)
   B->A: 0.008560 (X 0.000000, Y 0.000000, Z -0.008560)
 Oscillator strength (a.u.): 0.000369
 Norm of one-particle transition density matrix:
   A->B: 0.894008;   B->A: 0.877444
   ||gamma^AB||*||gamma^BA||: 0.784442

 ------------------------------------------------------------------------------
 State A: ccsd: 0/A1
 State B: cvs_eomee_ccsd/uhfref: 1/B1
 Transition dipole moment (a.u.):
   A->B: 0.017339 (X 0.017339, Y 0.000000, Z 0.000000)
   B->A: 0.017651 (X 0.017651, Y 0.000000, Z 0.000000)
 Oscillator strength (a.u.): 0.001534
 Norm of one-particle transition density matrix:
   A->B: 0.910827;   B->A: 0.924205
   ||gamma^AB||*||gamma^BA||: 0.841791

 ------------------------------------------------------------------------------
 State A: ccsd: 0/A1
 State B: cvs_eomee_ccsd/uhfref: 2/B1
 Transition dipole moment (a.u.):
   A->B: 0.032040 (X -0.032040, Y 0.000000, Z 0.000000)
   B->A: 0.032342 (X -0.032342, Y 0.000000, Z 0.000000)
 Oscillator strength (a.u.): 0.005202
 Norm of one-particle transition density matrix:
   A->B: 0.912502;   B->A: 0.922502
   ||gamma^AB||*||gamma^BA||: 0.841785

 ------------------------------------------------------------------------------
 State A: ccsd: 0/A1
 State B: cvs_eomee_ccsd/uhfref: 3/B1
 Transition dipole moment (a.u.):
   A->B: 0.004701 (X -0.004701, Y 0.000000, Z 0.000000)
   B->A: 0.003520 (X -0.003520, Y 0.000000, Z 0.000000)
 Oscillator strength (a.u.): 0.000084
 Norm of one-particle transition density matrix:
   A->B: 0.880111;   B->A: 0.999048
   ||gamma^AB||*||gamma^BA||: 0.879273

 ------------------------------------------------------------------------------
 State A: ccsd: 0/A1
 State B: cvs_eomee_ccsd/uhfref: 4/B1
 Transition dipole moment (a.u.):
   A->B: 0.004104 (X -0.004104, Y 0.000000, Z 0.000000)
   B->A: 0.002540 (X -0.002540, Y 0.000000, Z 0.000000)
 Oscillator strength (a.u.): 0.000053
 Norm of one-particle transition density matrix:
   A->B: 0.877285;   B->A: 1.001968
   ||gamma^AB||*||gamma^BA||: 0.879011

 ------------------------------------------------------------------------------
 State A: ccsd: 0/A1
 State B: cvs_eomee_ccsd/uhfref: 5/B1
 Transition dipole moment (a.u.):
   A->B: 0.005292 (X 0.005292, Y 0.000000, Z 0.000000)
   B->A: 0.005223 (X 0.005223, Y 0.000000, Z 0.000000)
 Oscillator strength (a.u.): 0.000141
 Norm of one-particle transition density matrix:
   A->B: 0.924306;   B->A: 0.905070
   ||gamma^AB||*||gamma^BA||: 0.836561

 ------------------------------------------------------------------------------
 State A: ccsd: 0/A1
 State B: cvs_eomee_ccsd/uhfref: 1/B2
 Transition dipole moment (a.u.):
   A->B: 0.004809 (X 0.000000, Y -0.004809, Z 0.000000)
   B->A: 0.005016 (X 0.000000, Y -0.005016, Z 0.000000)
 Oscillator strength (a.u.): 0.000119
 Norm of one-particle transition density matrix:
   A->B: 0.895656;   B->A: 0.915009
   ||gamma^AB||*||gamma^BA||: 0.819533

 ------------------------------------------------------------------------------
 State A: ccsd: 0/A1
 State B: cvs_eomee_ccsd/uhfref: 2/B2
 Transition dipole moment (a.u.):
   A->B: 0.011908 (X 0.000000, Y -0.011908, Z 0.000000)
   B->A: 0.012513 (X 0.000000, Y -0.012513, Z 0.000000)
 Oscillator strength (a.u.): 0.000747
 Norm of one-particle transition density matrix:
   A->B: 0.908796;   B->A: 0.923203
   ||gamma^AB||*||gamma^BA||: 0.839004

 ------------------------------------------------------------------------------
 State A: ccsd: 0/A1
 State B: cvs_eomee_ccsd/uhfref: 3/B2
 Transition dipole moment (a.u.):
   A->B: 0.032408 (X 0.000000, Y 0.032408, Z 0.000000)
   B->A: 0.032637 (X 0.000000, Y 0.032637, Z 0.000000)
 Oscillator strength (a.u.): 0.005309
 Norm of one-particle transition density matrix:
   A->B: 0.912681;   B->A: 0.922459
   ||gamma^AB||*||gamma^BA||: 0.841911

 ------------------------------------------------------------------------------
 State A: ccsd: 0/A1
 State B: cvs_eomee_ccsd/uhfref: 4/B2
 Transition dipole moment (a.u.):
   A->B: 0.009509 (X 0.000000, Y 0.009509, Z 0.000000)
   B->A: 0.009596 (X 0.000000, Y 0.009596, Z 0.000000)
 Oscillator strength (a.u.): 0.000460
 Norm of one-particle transition density matrix:
   A->B: 0.879307;   B->A: 0.891747
   ||gamma^AB||*||gamma^BA||: 0.784120

 ------------------------------------------------------------------------------
 State A: ccsd: 0/A1
 State B: cvs_eomee_ccsd/uhfref: 5/B2
 Transition dipole moment (a.u.):
   A->B: 0.003470 (X 0.000000, Y -0.003470, Z 0.000000)
   B->A: 0.003554 (X 0.000000, Y -0.003554, Z 0.000000)
 Oscillator strength (a.u.): 0.000063
 Norm of one-particle transition density matrix:
   A->B: 0.879468;   B->A: 0.885855
   ||gamma^AB||*||gamma^BA||: 0.779081


 All requested transition properties have been computed

 Transition Properties:   CPU 122.13 s  wall 96.28 s

 Total ccman2 time:   CPU 38002.69 s  wall 35620.89 s


 --------------------------------------------------------------
             Orbital Energies (a.u.) and Symmetries
 --------------------------------------------------------------

 Alpha MOs, Unrestricted
 -- Occupied --                  
-105.06  -11.58  -11.49  -11.48  -11.48  -11.46  -11.46  -10.78
  1 A1    2 A1    3 A1    1 B1    4 A1    2 B1    5 A1    6 A1                 
 -8.251  -8.250  -8.247  -1.434  -1.345  -1.251  -1.239  -1.069
  1 B2    7 A1    3 B1    8 A1    9 A1    4 B1   10 A1    5 B1                 
 -1.041  -0.928  -0.873  -0.854  -0.813  -0.811  -0.790  -0.728
 11 A1   12 A1    6 B1   13 A1   14 A1    7 B1    2 B2    8 B1                 
 -0.723  -0.688  -0.661  -0.595  -0.562
 15 A1    3 B2    9 B1    4 B2    1 A2                                         
 -- Virtual --                   
 -0.123  -0.089  -0.083  -0.065  -0.063  -0.043  -0.041  -0.028
  5 B2    2 A2   16 A1   10 B1   17 A1   18 A1   11 B1    6 B2                 
 -0.023  -0.021   0.003   0.003   0.008   0.014   0.026   0.028
 19 A1   20 A1    7 B2    3 A2   21 A1   12 B1   13 B1   22 A1                 
  0.035   0.041   0.042   0.042   0.054   0.056   0.056   0.063
 23 A1   14 B1    8 B2   24 A1    4 A2   25 A1   15 B1    9 B2                 
  0.071   0.074   0.075   0.102   0.107   0.136   0.137   0.149
 16 B1   10 B2   26 A1   17 B1   27 A1   28 A1   11 B2   29 A1                 
  0.160   0.162   0.171   0.182   0.185   0.185   0.195   0.207
 18 B1   19 B1   30 A1   20 B1   12 B2   31 A1   21 B1   32 A1                 
  0.227   0.228   0.242   0.251   0.253   0.265   0.272   0.273
 22 B1   33 A1   34 A1   23 B1    5 A2   35 A1   24 B1   36 A1                 
  0.280   0.284   0.296   0.343   0.347   0.369   0.375   0.392
 13 B2    6 A2   25 B1   37 A1    7 A2   38 A1   14 B2   39 A1                 
  0.400   0.401   0.402   0.413   0.415   0.436   0.447   0.468
 26 B1   40 A1   15 B2    8 A2   27 B1   41 A1   16 B2   28 B1                 
  0.471   0.495   0.496   0.506   0.506   0.521   0.531   0.546
 42 A1   17 B2   43 A1   29 B1   44 A1   30 B1   45 A1   31 B1                 
  0.555   0.560   0.576   0.583   0.602   0.607   0.620   0.620
  9 A2   46 A1   10 A2   18 B2   47 A1   32 B1   33 B1   48 A1                 
  0.638   0.657   0.676   0.683   0.694   0.707   0.727   0.728
 19 B2   34 B1   49 A1   35 B1   36 B1   20 B2   50 A1   11 A2                 
  0.740   0.742   0.760   0.769   0.780   0.793   0.800   0.801
 12 A2   21 B2   22 B2   23 B2   51 A1   37 B1   52 A1   13 A2                 
  0.806   0.837   0.890   0.915   0.917   0.946   0.964   0.989
 53 A1   54 A1   14 A2   55 A1   24 B2   38 B1   39 B1   40 B1                 
  0.997   1.008   1.087   1.159   1.207   1.209   1.236   1.272
 15 A2   25 B2   56 A1   41 B1   16 A2   26 B2   57 A1   17 A2                 
  1.274   1.279   1.284   1.285   1.317   1.336   1.354   1.365
 58 A1   27 B2   42 B1   59 A1   43 B1   60 A1   44 B1   61 A1                 
  1.396   1.406   1.414   1.430   1.440   1.447   1.456   1.468
 28 B2   62 A1   45 B1   63 A1   64 A1   46 B1   65 A1   47 B1                 
  1.470   1.500   1.506   1.523   1.576   1.578   1.621   1.668
 18 A2   29 B2   19 A2   30 B2   48 B1   66 A1   49 B1   67 A1                 
  1.683   1.690   1.725   1.738   1.739   1.760   1.762   1.805
 68 A1   20 A2   31 B2   69 A1   50 B1   51 B1   70 A1   32 B2                 
  1.836   1.837   1.901   1.911   1.915   1.916   1.969   1.971
 71 A1   52 B1   33 B2   72 A1   53 B1   21 A2   34 B2   22 A2                 
  1.993   2.040   2.069   2.074   2.079   2.136   2.141   2.163
 73 A1   54 B1   74 A1   55 B1   35 B2   75 A1   56 B1   23 A2                 
  2.178   2.210   2.237   2.386   2.421   2.508   2.588   2.600
 76 A1   57 B1   77 A1   24 A2   36 B2   58 B1   78 A1   79 A1                 
  2.612   2.715   2.724   2.770   2.899   2.926   2.964   2.969
 59 B1   60 B1   80 A1   81 A1   82 A1   61 B1   62 B1   83 A1                 
  3.132   3.216   3.385   3.611   4.367
 63 B1   84 A1   64 B1   85 A1   86 A1                                         

 Beta MOs, Unrestricted
 -- Occupied --                  
-105.06  -11.57  -11.47  -11.47  -11.47  -11.47  -11.47  -10.78
  1 A1    2 A1    3 A1    1 B1    4 A1    2 B1    5 A1    6 A1                 
 -8.250  -8.246  -8.243  -1.407  -1.332  -1.249  -1.198  -1.062
  7 A1    3 B1    1 B2    8 A1    9 A1    4 B1   10 A1    5 B1                 
 -1.027  -0.921  -0.868  -0.848  -0.812  -0.804  -0.725  -0.722
 11 A1   12 A1    6 B1   13 A1    7 B1   14 A1    8 B1   15 A1                 
 -0.708  -0.658  -0.638  -0.567
  2 B2    9 B1    3 B2    1 A2                                                 
 -- Virtual --                   
 -0.254  -0.083  -0.066  -0.065  -0.062  -0.049  -0.041  -0.041
  4 B2   16 A1    2 A2   10 B1   17 A1    5 B2   18 A1   11 B1                 
 -0.028  -0.020  -0.020   0.004   0.009   0.014   0.015   0.026
  6 B2   19 A1   20 A1    3 A2   21 A1   12 B1    7 B2   13 B1                 
  0.030   0.036   0.041   0.044   0.050   0.056   0.058   0.058
 22 A1   23 A1   14 B1   24 A1    8 B2   15 B1    4 A2   25 A1                 
  0.071   0.071   0.077   0.080   0.102   0.110   0.140   0.153
  9 B2   16 B1   26 A1   10 B2   17 B1   27 A1   28 A1   29 A1                 
  0.158   0.161   0.161   0.174   0.183   0.189   0.190   0.197
 18 B1   11 B2   19 B1   30 A1   20 B1   31 A1   12 B2   21 B1                 
  0.210   0.228   0.231   0.245   0.251   0.256   0.265   0.275
 32 A1   22 B1   33 A1   34 A1   23 B1    5 A2   35 A1   36 A1                 
  0.276   0.287   0.291   0.296   0.347   0.349   0.377   0.380
 24 B1    6 A2   13 B2   25 B1   37 A1    7 A2   14 B2   38 A1                 
  0.398   0.400   0.407   0.415   0.418   0.420   0.441   0.463
 26 B1   39 A1   40 A1   27 B1   15 B2    8 A2   41 A1   16 B2                 
  0.474   0.479   0.499   0.503   0.504   0.513   0.522   0.536
 28 B1   42 A1   43 A1   17 B2   29 B1   44 A1   30 B1   45 A1                 
  0.549   0.556   0.563   0.583   0.598   0.603   0.607   0.621
 31 B1    9 A2   46 A1   10 A2   18 B2   47 A1   32 B1   33 B1                 
  0.624   0.653   0.659   0.678   0.688   0.694   0.721   0.730
 48 A1   19 B2   34 B1   49 A1   35 B1   36 B1   20 B2   50 A1                 
  0.733   0.744   0.763   0.771   0.777   0.785   0.794   0.802
 11 A2   12 A2   21 B2   22 B2   23 B2   51 A1   37 B1   13 A2                 
  0.804   0.806   0.841   0.891   0.916   0.936   0.947   0.965
 52 A1   53 A1   54 A1   14 A2   55 A1   24 B2   38 B1   39 B1                 
  0.990   1.002   1.017   1.089   1.159   1.217   1.220   1.240
 40 B1   15 A2   25 B2   56 A1   41 B1   26 B2   16 A2   57 A1                 
  1.280   1.281   1.285   1.288   1.290   1.322   1.345   1.354
 58 A1   17 A2   42 B1   27 B2   59 A1   43 B1   60 A1   44 B1                 
  1.367   1.402   1.415   1.416   1.436   1.448   1.449   1.458
 61 A1   28 B2   45 B1   62 A1   63 A1   64 A1   46 B1   65 A1                 
  1.473   1.494   1.504   1.507   1.542   1.580   1.580   1.624
 47 B1   18 A2   29 B2   19 A2   30 B2   66 A1   48 B1   49 B1                 
  1.671   1.692   1.696   1.734   1.740   1.745   1.761   1.764
 67 A1   20 A2   68 A1   31 B2   50 B1   69 A1   51 B1   70 A1                 
  1.816   1.840   1.841   1.904   1.915   1.920   1.920   1.977
 32 B2   71 A1   52 B1   33 B2   53 B1   72 A1   21 A2   34 B2                 
  1.984   1.999   2.042   2.070   2.076   2.088   2.138   2.140
 22 A2   73 A1   54 B1   74 A1   55 B1   35 B2   75 A1   56 B1                 
  2.165   2.183   2.213   2.239   2.396   2.426   2.509   2.589
 23 A2   76 A1   57 B1   77 A1   24 A2   36 B2   58 B1   78 A1                 
  2.604   2.610   2.717   2.727   2.771   2.903   2.925   2.968
 79 A1   59 B1   60 B1   80 A1   81 A1   82 A1   61 B1   62 B1                 
  2.976   3.133   3.223   3.387   3.613   4.371
 83 A1   63 B1   84 A1   64 B1   85 A1   86 A1                                 
 --------------------------------------------------------------

          Ground-State Mulliken Net Atomic Charges

     Atom                 Charge (a.u.)    Spin (a.u.)
  --------------------------------------------------------
      1 H                    -0.314534      -0.026167
      2 C                     0.464787       0.427905
      3 C                     0.950374      -0.606766
      4 H                    -0.371884       0.004773
      5 C                     0.170087       0.941879
      6 H                    -0.355201      -0.030338
      7 C                     0.950374      -0.606766
      8 H                    -0.371884       0.004773
      9 C                     0.464787       0.427905
     10 H                    -0.314534      -0.026167
     11 C                    -0.163359       0.350920
     12 Cl                   -0.109013       0.138050
  --------------------------------------------------------
  Sum of atomic charges =     1.000000
  Sum of spin   charges =     1.000000

 -----------------------------------------------------------------
                    Cartesian Multipole Moments
 -----------------------------------------------------------------
    Charge (ESU x 10^10)
                 4.8032
    Dipole Moment (Debye)
         X      -0.0000      Y       0.0000      Z      -3.3892
       Tot       3.3892
    Quadrupole Moments (Debye-Ang)
        XX     -33.2671     XY       0.0000     YY     -47.7786
        XZ       0.0000     YZ       0.0000     ZZ     -25.2074
    Octopole Moments (Debye-Ang^2)
       XXX      -0.0000    XXY      -0.0000    XYY       0.0000
       YYY      -0.0000    XXZ      -7.5020    XYZ      -0.0000
       YYZ       5.6323    XZZ      -0.0000    YZZ       0.0000
       ZZZ     -16.4162
    Hexadecapole Moments (Debye-Ang^3)
      XXXX    -222.6237   XXXY      -0.0000   XXYY     -61.4558
      XYYY       0.0000   YYYY     -52.1521   XXXZ       0.0000
      XXYZ      -0.0000   XYYZ       0.0000   YYYZ       0.0000
      XXZZ    -151.1968   XYZZ       0.0000   YYZZ    -144.9289
      XZZZ       0.0000   YZZZ      -0.0000   ZZZZ    -594.3196
 -----------------------------------------------------------------
Archival summary:
1\1\Annas-MacBook-Pro-3.local\SP\ProcedureUnspecified\BasisUnspecified\l165(1+,2)\MonSep1017:18:302018MonSep1017:18:302018\0\\#,ProcedureUnspecified,BasisUnspecified,\\1,2\Cl\C,1,1.73093\C,2,1.39121,1,119.398\H,3,1.08039,2,119.798,1,0,0\C,2,1.39121,1,119.398,3,-180,0\H,5,1.08039,2,119.798,1,0,0\C,3,1.39191,2,119.079,1,-180,0\H,7,1.08135,3,119.367,2,180,0\C,5,1.39191,2,119.079,1,180,0\H,9,1.08135,5,119.367,2,-180,0\C,7,1.39245,3,120.451,2,0,0\H,11,1.08085,7,120.132,3,-180,0\\HF=-689.35602\\@

 Total job time:  35877.85s(wall), 38257.56s(cpu) 
 Mon Sep 10 17:18:30 2018

        *************************************************************
        *                                                           *
        *  Thank you very much for using Q-Chem.  Have a nice day.  *
        *                                                           *
        *************************************************************


