Q-Chem Developer Version!
                  Welcome to Q-Chem
     A Quantum Leap Into The Future Of Chemistry


 Q-Chem 5.1, Q-Chem, Inc., Pleasanton, CA (2018)

 Yihan Shao,  Zhengting Gan,  E. Epifanovsky,  A. T. B. Gilbert,  M. Wormit,  
 J. Kussmann,  A. W. Lange,  A. Behn,  Jia Deng,  Xintian Feng,  D. Ghosh,  
 M. Goldey,  P. R. Horn,  L. D. Jacobson,  I. Kaliman,  T. Kus,  A. Landau,  
 Jie Liu,  E. I. Proynov,  R. M. Richard,  R. P. Steele,  E. J. Sundstrom,  
 H. L. Woodcock III,  P. M. Zimmerman,  D. Zuev,  B. Albrecht,  E. Alguire,  
 S. A. Baeppler,  D. Barton,  Z. Benda,  Y. A. Bernard,  E. J. Berquist,  
 K. B. Bravaya,  H. Burton,  D. Casanova,  Chun-Min Chang,  Yunqing Chen,  
 A. Chien,  K. D. Closser,  M. P. Coons,  S. Coriani,  S. Dasgupta,  
 A. L. Dempwolff,  M. Diedenhofen,  Hainam Do,  R. G. Edgar,  Po-Tung Fang,  
 S. Faraji,  S. Fatehi,  Qingguo Feng,  K. D. Fenk,  J. Fosso-Tande,  
 Qinghui Ge,  A. Ghysels,  G. Gidofalvi,  J. Gomes,  J. Gonthier,  A. Gunina,  
 D. Hait,  M. W. D. Hanson-Heine,  P. H. P. Harbach,  A. W. Hauser,  
 J. E. Herr,  E. G. Hohenstein,  Z. C. Holden,  Kerwin Hui,  B. C. Huynh,  
 T.-C. Jagau,  Hyunjun Ji,  B. Kaduk,  K. Khistyaev,  Jaehoon Kim,  
 P. Klunzinger,  K. Koh,  D. Kosenkov,  L. Koulias,  T. Kowalczyk,  
 C. M. Krauter,  A. Kunitsa,  Ka Un Lao,  A. Laurent,  K. V. Lawler,  
 Joonho Lee,  D. Lefrancois,  S. Lehtola,  D. S. Levine,  Yi-Pei Li,  
 You-Sheng Lin,  Fenglai Liu,  E. Livshits,  A. Luenser,  P. Manohar,  
 E. Mansoor,  S. F. Manzer,  Shan-Ping Mao,  Yuezhi Mao,  N. Mardirossian,  
 A. V. Marenich,  T. Markovich,  L. A. Martinez-Martinez,  S. A. Maurer,  
 N. J. Mayhall,  S. C. McKenzie,  J.-M. Mewes,  A. F. Morrison,  
 J. W. Mullinax,  K. Nanda,  T. S. Nguyen-Beck,  R. Olivares-Amaya,  
 J. A. Parkhill,  T. M. Perrine,  F. Plasser,  P. Pokhilko,  S. Prager,  
 A. Prociuk,  E. Ramos,  D. R. Rehn,  F. Rob,  M. Schneider,  N. Sergueev,  
 S. M. Sharada,  S. Sharma,  D. W. Small,  T. Stauch,  T. Stein,  
 Yu-Chuan Su,  A. J. W. Thom,  A. Tkatchenko,  T. Tsuchimochi,  N. M. Tubman,  
 L. Vogt,  M. L. Vidal,  O. Vydrov,  M. A. Watson,  J. Wenzel,  
 M. de Wergifosse,  T. A. Wesolowski,  A. White,  J. Witte,  A. Yamada,  
 Jun Yang,  K. Yao,  S. Yeganeh,  S. R. Yost,  Zhi-Qiang You,  A. Zech,  
 Igor Ying Zhang,  Xing Zhang,  Yan Zhao,  Ying Zhu,  B. R. Brooks,  
 G. K. L. Chan,  C. J. Cramer,  M. S. Gordon,  W. J. Hehre,  A. Klamt,  
 M. W. Schmidt,  C. D. Sherrill,  D. G. Truhlar,  A. Aspuru-Guzik,  R. Baer,  
 A. T. Bell,  N. A. Besley,  Jeng-Da Chai,  A. E. DePrince, III,  
 R. A. DiStasio Jr.,  A. Dreuw,  B. D. Dunietz,  T. R. Furlani,  
 Chao-Ping Hsu,  Yousung Jung,  Jing Kong,  D. S. Lambrecht,  WanZhen Liang,  
 C. Ochsenfeld,  V. A. Rassolov,  L. V. Slipchenko,  J. E. Subotnik,  
 T. Van Voorhis,  J. M. Herbert,  A. I. Krylov,  P. M. W. Gill,  M. Head-Gordon

 Contributors to earlier versions of Q-Chem not listed above: 
 R. D. Adamson,  B. Austin,  J. Baker,  G. J. O. Beran,  K. Brandhorst,  
 S. T. Brown,  E. F. C. Byrd,  A. K. Chakraborty,  C.-L. Cheng,  
 Siu Hung Chien,  D. M. Chipman,  D. L. Crittenden,  H. Dachsel,  
 R. J. Doerksen,  A. D. Dutoi,  L. Fusti-Molnar,  W. A. Goddard III,  
 A. Golubeva-Zadorozhnaya,  S. R. Gwaltney,  G. Hawkins,  A. Heyden,  
 S. Hirata,  G. Kedziora,  F. J. Keil,  C. Kelley,  Jihan Kim,  R. A. King,  
 R. Z. Khaliullin,  P. P. Korambath,  W. Kurlancheek,  A. M. Lee,  M. S. Lee,  
 S. V. Levchenko,  Ching Yeh Lin,  D. Liotard,  R. C. Lochan,  I. Lotan,  
 P. E. Maslen,  N. Nair,  D. P. O'Neill,  D. Neuhauser,  E. Neuscamman,  
 C. M. Oana,  R. Olson,  B. Peters,  R. Peverati,  P. A. Pieniazek,  
 Y. M. Rhee,  J. Ritchie,  M. A. Rohrdanz,  E. Rosta,  N. J. Russ,  
 H. F. Schaefer III,  N. E. Schultz,  N. Shenvi,  A. C. Simmonett,  A. Sodt,  
 D. Stuck,  K. S. Thanthiriwatte,  V. Vanovschi,  Tao Wang,  A. Warshel,  
 C. F. Williams,  Q. Wu,  X. Xu,  W. Zhang

 Please cite Q-Chem as follows:
 Y. Shao et al., Mol. Phys. 113, 184-215 (2015)
 DOI: 10.1080/00268976.2014.952696

 Q-Chem 5.1.1 for Intel X86 EM64T Linux

 Parts of Q-Chem use Armadillo 8.300.2 (Tropical Shenanigans).
 http://arma.sourceforge.net/

 Q-Chem begins on Sun Oct 14 02:51:15 2018  

node20
Host: 0

     Scratch files written to /scratch/krylov/qchem26925//
Core orbitals will be frozen
Input Ideriv = 0
Curr. Ideriv = -1
Max.  Ideriv = 0

Checking the input file for inconsistencies... 	...done.

--------------------------------------------------------------
User input:
--------------------------------------------------------------
$comment
Optimized Cl-Bz, XAS, 
6-311(2+,+)G** with uncontacted core on carbon only
$end

$molecule
0 1
 H        -2.1400320233    0.0000000000    0.5090177858
 C        -1.2120583232    0.0000000000   -0.0442490642
 C        -1.2042956497    0.0000000000   -1.4361358281
 H        -2.1437187877    0.0000000000   -1.9716770234
 C         0.0000000000    0.0000000000   -2.1351330277
 H         0.0000000000    0.0000000000   -3.2159870334
 C         1.2042956497    0.0000000000   -1.4361358281
 H         2.1437187877    0.0000000000   -1.9716770234
 C         1.2120583232    0.0000000000   -0.0442490642
 H         2.1400320233    0.0000000000    0.5090177858
 C         0.0000000000    0.0000000000    0.6386615242
 Cl        0.0000000000    0.0000000000    2.3695929760
$end

$rem
   JOB_TYPE  =  SP
   BASIS  =  general
   METHOD  =  EOM-CCSD
   CVS_EE_STATES = [6,0,6,6]
   CC_MEMORY = 80000
   cc_trans_prop = 1
$end

$basis
H    0
S    3    1.000000
   3.38650000E+01    2.54938000E-02 
   5.09479000E+00    1.90373000E-01 
   1.15879000E+00    8.52161000E-01 
S    1    1.000000
   3.25840000E-01    1.00000000E+00 
S    1    1.000000
   1.02741000E-01    1.00000000E+00 
S    1    1.000000
   3.60000000E-02    1.00000000E+00 
P    1    1.000000
   7.50000000E-01    1.00000000E+00 
****
C    0
S    1    1.000000
   4.56324000E+03    1.96665000E-03 
S    1    1.000000
   6.82024000E+02    1.52306000E-02 
S    1    1.000000
   1.54973000E+02    7.61269000E-02 
S    1    1.000000
   4.44553000E+01    2.60801000E-01 
S    1    1.000000
   1.30290000E+01    6.16462000E-01 
S    1    1.000000
   1.82773000E+00    2.21006000E-01 
SP   3    1.000000
   2.09642000E+01    1.14660000E-01   4.02487000E-02 
   4.80331000E+00    9.19999000E-01   2.37594000E-01 
   1.45933000E+00   -3.03068000E-03   8.15854000E-01 
SP   1    1.000000
   4.83456000E-01    1.00000000E+00   1.00000000E+00 
SP   1    1.000000
   1.45585000E-01    1.00000000E+00   1.00000000E+00 
SP   1    1.000000
   4.38000000E-02    1.00000000E+00   1.00000000E+00 
SP   1    1.000000
   1.31927711E-02    1.00000000E+00   1.00000000E+00 
D    1    1.000000
   6.26000000E-01    1.00000000E+00 
****
Cl   0
S    6    1.000000
   1.05819000E+05    7.38000000E-04 
   1.58720000E+04    5.71800000E-03 
   3.61965000E+03    2.94950000E-02 
   1.03080000E+03    1.17286000E-01 
   3.39908000E+02    3.62949000E-01 
   1.24538000E+02    5.84149000E-01 
S    3    1.000000
   1.24538000E+02    1.34177000E-01 
   4.95135000E+01    6.24250000E-01 
   2.08056000E+01    2.91756000E-01 
S    1    1.000000
   6.58346000E+00    1.00000000E+00 
S    1    1.000000
   2.56468000E+00    1.00000000E+00 
S    1    1.000000
   5.59763000E-01    1.00000000E+00 
S    1    1.000000
   1.83273000E-01    1.00000000E+00 
P    5    1.000000
   5.89776000E+02    2.39100000E-03 
   1.39849000E+02    1.85040000E-02 
   4.51413000E+01    8.13770000E-02 
   1.68733000E+01    2.21552000E-01 
   6.74110000E+00    7.72569000E-01 
P    2    1.000000
   6.74110000E+00   -1.57224400E+00 
   2.77152000E+00    9.92389000E-01 
P    1    1.000000
   1.02387000E+00    1.00000000E+00 
P    1    1.000000
   3.81368000E-01    1.00000000E+00 
P    1    1.000000
   1.09437000E-01    1.00000000E+00 
SP   1    1.000000
   4.83000000E-02    1.00000000E+00   1.00000000E+00 
SP   1    1.000000
   1.45481928E-02    1.00000000E+00   1.00000000E+00 
D    1    1.000000
   7.50000000E-01    1.00000000E+00 
****
$end

--------------------------------------------------------------
 ----------------------------------------------------------------
             Standard Nuclear Orientation (Angstroms)
    I     Atom           X                Y                Z
 ----------------------------------------------------------------
    1      H      -2.1400320233     0.0000000000     0.3814604176
    2      C      -1.2120583232     0.0000000000    -0.1718064324
    3      C      -1.2042956497     0.0000000000    -1.5636931963
    4      H      -2.1437187877     0.0000000000    -2.0992343916
    5      C      -0.0000000000     0.0000000000    -2.2626903959
    6      H      -0.0000000000     0.0000000000    -3.3435444016
    7      C       1.2042956497     0.0000000000    -1.5636931963
    8      H       2.1437187877     0.0000000000    -2.0992343916
    9      C       1.2120583232    -0.0000000000    -0.1718064324
   10      H       2.1400320233    -0.0000000000     0.3814604176
   11      C       0.0000000000    -0.0000000000     0.5111041560
   12      Cl      0.0000000000    -0.0000000000     2.2420356078
 ----------------------------------------------------------------
 Molecular Point Group                 C2v   NOp =  4
 Largest Abelian Subgroup              C2v   NOp =  4
 Nuclear Repulsion Energy =   316.4076139427 hartrees
 There are       29 alpha and       29 beta electrons

 Q-Chem warning in module forms1/BasisType.C, line 1703:

 Setting pure/cartesian flag to 2111 for general basis


 Requested basis set is non-standard
 There are 111 shells and 255 basis functions
MEM_TOTAL is adjusted to CC_MEMORY + MEM_STATIC!
 Total memory of 80192MB is distributed as follows: 
   QALLOC including MEM_STATIC uses 192MB
   MEM_STATIC is set to 192MB
   CCMAN JOB total memory use is  80000MB
 Warning: actual memory use might exceed 80192MB

 Total QAlloc Memory Limit    192 MB
 Mega-Array Size       188 MB
 MEM_STATIC part       192 MB

                       Distance Matrix (Angstroms)
             H (  1)   C (  2)   C (  3)   H (  4)   C (  5)   H (  6)
   C (  2)  1.080389
   C (  3)  2.158524  1.391908
   H (  4)  2.480698  2.140787  1.081351
   C (  5)  3.401657  2.416791  1.392453  2.149941
   H (  6)  4.295975  3.395439  2.148999  2.478677  1.080854
   C (  7)  3.868869  2.788569  2.408591  3.390576  1.392453  2.148999
   H (  8)  4.950189  3.869912  3.390576  4.287438  2.149941  2.478677
   C (  9)  3.397442  2.424117  2.788569  3.869912  2.416791  3.395439
   H ( 10)  4.280064  3.397442  3.868869  4.950189  3.401657  4.295975
   C ( 11)  2.143955  1.391205  2.398981  3.377780  2.773795  3.854649
   Cl( 12)  2.835750  2.701059  3.991729  4.841710  4.504726  5.585580
             C (  7)   H (  8)   C (  9)   H ( 10)   C ( 11)
   H (  8)  1.081351
   C (  9)  1.391908  2.140787
   H ( 10)  2.158524  2.480698  1.080389
   C ( 11)  2.398981  3.377780  1.391205  2.143955
   Cl( 12)  3.991729  4.841710  2.701059  2.835750  1.730931

 A cutoff of  1.0D-14 yielded   5292 shell pairs
 There are     31225 function pairs (     33033 Cartesian)

 -------------------------------------------------------
 OpenMP Integral Computing Module                       
 Release: version 1.0, May 2013, Q-Chem Inc. Pittsburgh 
 -------------------------------------------------------
 Integral Job Info:
 Integral job number is                      11
 Integral operator is                         1
 short-range coefficients                     0
 long-range coefficients              100000000
 Omega coefficients                           0
 if combine SR and LR in K                    0
 Integral screening is                        0
 Integral computing path is                   2
 max size of driver memory is            800000
 size of driver memory is                593474
 size of scratch memory is              8114252
 max col of scratch BK array               1296
 max len of scratch array in speh3          155
 max len of scratch index in speh4           18
 max int batch size is                      520
 min int batch size is                       52
 fixed nKL is                                52
 max L of basis functions is                  2
 order of int derivative is                   0
 number of shells is                        111
 number of basis is                         262
 number of cartesian basis is               262
 number of contracted shell pairs          5292
 number of primitive shell pairs           7807
 maxK2 (contraction) of shell pair           36
 max number of K2 of shell pair               1
 max number of CS2 of shell pair           1511
 max number of PS2 of shell pair           1511
 mem total for path MDJ                  543004
 -------------------------------------------------------
 Smallest overlap matrix eigenvalue = 1.05E-08
 Linear dependence detected in AO basis
 Tighter screening thresholds may be required for diffuse basis sets
 Use S2THRESH > 14 and THRESH = 14 in case of SCF convergence issues
 Number of orthogonalized atomic orbitals = 248
 Maximum deviation from orthogonality = 3.186E-11

 Scale SEOQF with 1.000000e-01/1.000000e-01/1.000000e-01

 Standard Electronic Orientation quadrupole field applied
 Nucleus-field energy     =    -0.0000000161 hartrees
 Guess MOs from core Hamiltonian diagonalization

 -----------------------------------------------------------------------
  General SCF calculation program by
  Eric Jon Sundstrom, Paul Horn, Yuezhi Mao, Dmitri Zuev, Alec White,
  David Stuck, Shaama M.S., Shane Yost, Joonho Lee, David Small,
  Daniel Levine, Susi Lehtola, Hugh Burton, Evgeny Epifanovsky
 -----------------------------------------------------------------------
 Hartree-Fock
 using 8 threads for integral computing
 -------------------------------------------------------
 OpenMP Integral computing Module                
 Release: version 2.0, May 2017, Q-Chem Inc. Pleasanton 
 -------------------------------------------------------
 A restricted SCF calculation will be
 performed using DIIS
 SCF converges when DIIS error is below 1.0e-08
 ---------------------------------------
  Cycle       Energy         DIIS error
 ---------------------------------------
    1    -581.7445104565      1.42e-01  
    2    -440.3034831146      1.06e-01  
    3    -555.5627234828      9.56e-02  
    4    -658.0889886324      5.38e-02  
    5    -636.2863528891      7.69e-02  
    6    -687.2658856038      1.93e-02  
    7    -689.1767753655      6.87e-03  
    8    -689.6377416810      1.97e-03  
    9    -689.6740335821      5.51e-04  
   10    -689.6786122410      2.42e-04  
   11    -689.6803167764      1.20e-04  
   12    -689.6807896371      6.47e-05  
   13    -689.6809133741      2.22e-05  
   14    -689.6809378846      5.42e-06  
   15    -689.6809387464      2.23e-06  
   16    -689.6809388548      5.62e-07  
   17    -689.6809388697      8.83e-08  
   18    -689.6809388654      2.43e-08  
   19    -689.6809388670      4.86e-09  Convergence criterion met
 ---------------------------------------
 SCF time:   CPU 108.41s  wall 15.00s 
 SCF   energy in the final basis set =     -689.6809388670
 Total energy in the final basis set =     -689.6809388670


 ------------------------------------------------------------------------------

   CCMAN2: suite of methods based on coupled cluster
           and equation of motion theories.

   Components:
   * libvmm-1.3-trunk
     by Evgeny Epifanovsky, Ilya Kaliman.
   * libtensor-2.5-trunk
     by Evgeny Epifanovsky, Michael Wormit, Dmitry Zuev, Sam Manzer, 
        Ilya Kaliman.
   * libcc-2.5-trunk
     by Evgeny Epifanovsky, Arik Landau, Tomasz Kus, Kirill Khistyaev, 
        Dmitry Zuev, Prashant Manohar, Xintian Feng, Anna Krylov, 
        Matthew Goldey, Alec White, Thomas Jagau, Kaushik Nanda, 
        Anastasia Gunina, Alexander Kunitsa, Joonho Lee.

   CCMAN original authors:
   Anna I. Krylov, C. David Sherrill, Steven R. Gwaltney,
   Edward F. C. Byrd (2000)
   Sergey V. Levchenko, Lyudmila V. Slipchenko, Tao Wang,
   Ana-Maria C. Cristian (2003)
   Piotr A. Pieniazek, C. Melania Oana, Evgeny Epifanovsky (2007)
   Prashant Manohar (2009)

 ------------------------------------------------------------------------------


 Allocating and initializing 80000MB of RAM...
 Calculation will run on 8 cores.


 Alpha MOs, Restricted
 -- Occupied --                  
-104.84  -11.31  -11.25  -11.25  -11.25  -11.25  -11.25  -10.57
  1 A1    2 A1    3 A1    1 B1    4 A1    2 B1    5 A1    6 A1                 
 -8.034  -8.031  -8.031  -1.196  -1.124  -1.036  -1.000  -0.850
  7 A1    3 B1    1 B2    8 A1    9 A1    4 B1   10 A1    5 B1                 
 -0.823  -0.715  -0.651  -0.651  -0.607  -0.593  -0.547  -0.520
 11 A1   12 A1    6 B1   13 A1    7 B1   14 A1    2 B2    8 B1                 
 -0.515  -0.471  -0.456  -0.354  -0.338
 15 A1    3 B2    9 B1    1 A2    4 B2                                         
 -- Virtual --                   
  0.014   0.020   0.021   0.032   0.032   0.033   0.043   0.044
 16 A1   10 B1   17 A1    5 B2   18 A1   11 B1    2 A2    6 B2                 
  0.045   0.048   0.054   0.055   0.056   0.063   0.063   0.065
 19 A1   20 A1   12 B1    3 A2    7 B2   21 A1    8 B2   13 B1                 
  0.068   0.069   0.070   0.073   0.074   0.078   0.091   0.096
 22 A1    9 B2   14 B1   23 A1   15 B1   24 A1   25 A1   16 B1                 
  0.100   0.102   0.104   0.106   0.126   0.163   0.169   0.172
 26 A1    4 A2   10 B2   17 B1   27 A1   11 B2   28 A1   18 B1                 
  0.176   0.180   0.181   0.192   0.211   0.213   0.214   0.222
 29 A1    5 A2   12 B2   30 A1   19 B1   31 A1   13 B2   32 A1                 
  0.222   0.229   0.232   0.235   0.238   0.243   0.244   0.247
 20 B1   14 B2    6 A2   21 B1   33 A1   15 B2   34 A1   22 B1                 
  0.252   0.264   0.280   0.291   0.295   0.303   0.314   0.330
 23 B1   35 A1   36 A1   24 B1   25 B1   37 A1   38 A1   26 B1                 
  0.357   0.366   0.378   0.414   0.418   0.432   0.441   0.491
 16 B2   39 A1   40 A1   41 A1   27 B1   42 A1   28 B1   43 A1                 
  0.500   0.509   0.509   0.620   0.631   0.643   0.652   0.662
 29 B1   44 A1   30 B1   45 A1   31 B1   32 B1   17 B2   46 A1                 
  0.720   0.730   0.742   0.743   0.745   0.772   0.782   0.794
 47 A1   33 B1   48 A1   18 B2   34 B1    7 A2   19 B2   35 B1                 
  0.821   0.822   0.823   0.881   0.884   0.898   0.934   0.936
 49 A1    8 A2   20 B2   50 A1   21 B2   51 A1   52 A1   36 B1                 
  0.955   0.973   1.018   1.024   1.039   1.060   1.067   1.082
 37 B1   53 A1   38 B1   54 A1   55 A1   39 B1   22 B2   56 A1                 
  1.095   1.100   1.133   1.139   1.173   1.192   1.221   1.225
 57 A1   40 B1   41 B1    9 A2   58 A1   42 B1   59 A1   23 B2                 
  1.235   1.273   1.309   1.352   1.376   1.443   1.467   1.475
 10 A2   60 A1   11 A2   24 B2   12 A2   61 A1   43 B1   62 A1                 
  1.581   1.663   1.728   1.776   1.787   1.824   1.831   1.844
 25 B2   63 A1   44 B1   64 A1   45 B1   26 B2   13 A2   65 A1                 
  1.892   1.908   1.909   1.963   1.999   2.008   2.042   2.103
 27 B2   66 A1   46 B1   67 A1   47 B1   28 B2   14 A2   48 B1                 
  2.168   2.218   2.220   2.221   2.236   2.243   2.287   2.323
 68 A1   49 B1   15 A2   29 B2   50 B1   69 A1   30 B2   70 A1                 
  2.352   2.368   2.392   2.579   2.611   2.647   2.684   2.748
 51 B1   16 A2   71 A1   31 B2   52 B1   17 A2   32 B2   72 A1                 
  2.777   2.798   2.810   2.867   2.914   2.935   2.981   2.997
 53 B1   73 A1   54 B1   55 B1   74 A1   75 A1   76 A1   77 A1                 
  3.009   3.026   3.038   3.043   3.066   3.191   3.194   3.205
 56 B1   78 A1   79 A1   57 B1   33 B2   34 B2   18 A2   58 B1                 
  3.210   3.283   3.288   3.321   3.473   3.567   3.631   3.757
 80 A1   35 B2   19 A2   59 B1   36 B2   60 B1   81 A1   61 B1                 
  3.782   3.902   3.919   4.022   4.189   4.384   4.442   4.510
 82 A1   62 B1   83 A1   84 A1   85 A1   63 B1   86 A1   87 A1                 
  4.516   5.123   5.263   5.442   5.447   5.754   5.779   6.187
 64 B1   88 A1   65 B1   89 A1   66 B1   90 A1   67 B1   91 A1                 
 10.544  20.635  20.695  20.708  20.824  20.852  21.124  26.795
 92 A1   93 A1   94 A1   68 B1   95 A1   69 B1   96 A1   37 B2                 
 27.056  27.522  80.200  80.266  80.282  80.380  80.405  80.613
 70 B1   97 A1   98 A1   99 A1   71 B1  100 A1   72 B1  101 A1                 
219.412 322.039 322.101 322.118 322.201 322.223 322.3901431.607
102 A1  103 A1  104 A1   73 B1  105 A1   74 B1  106 A1  107 A1                 
*******1431.6801431.7491431.7681431.9088749.8448749.8938749.909
108 A1   75 B1  109 A1   76 B1  110 A1  111 A1  112 A1   77 B1                 
*******8749.9818750.093
113 A1   78 B1  114 A1                                                         

 Beta MOs, Restricted
 -- Occupied --                  
-104.84  -11.31  -11.25  -11.25  -11.25  -11.25  -11.25  -10.57
  1 A1    2 A1    3 A1    1 B1    4 A1    2 B1    5 A1    6 A1                 
 -8.034  -8.031  -8.031  -1.196  -1.124  -1.036  -1.000  -0.850
  7 A1    3 B1    1 B2    8 A1    9 A1    4 B1   10 A1    5 B1                 
 -0.823  -0.715  -0.651  -0.651  -0.607  -0.593  -0.547  -0.520
 11 A1   12 A1    6 B1   13 A1    7 B1   14 A1    2 B2    8 B1                 
 -0.515  -0.471  -0.456  -0.354  -0.338
 15 A1    3 B2    9 B1    1 A2    4 B2                                         
 -- Virtual --                   
  0.014   0.020   0.021   0.032   0.032   0.033   0.043   0.044
 16 A1   10 B1   17 A1    5 B2   18 A1   11 B1    2 A2    6 B2                 
  0.045   0.048   0.054   0.055   0.056   0.063   0.063   0.065
 19 A1   20 A1   12 B1    3 A2    7 B2   21 A1    8 B2   13 B1                 
  0.068   0.069   0.070   0.073   0.074   0.078   0.091   0.096
 22 A1    9 B2   14 B1   23 A1   15 B1   24 A1   25 A1   16 B1                 
  0.100   0.102   0.104   0.106   0.126   0.163   0.169   0.172
 26 A1    4 A2   10 B2   17 B1   27 A1   11 B2   28 A1   18 B1                 
  0.176   0.180   0.181   0.192   0.211   0.213   0.214   0.222
 29 A1    5 A2   12 B2   30 A1   19 B1   31 A1   13 B2   32 A1                 
  0.222   0.229   0.232   0.235   0.238   0.243   0.244   0.247
 20 B1   14 B2    6 A2   21 B1   33 A1   15 B2   34 A1   22 B1                 
  0.252   0.264   0.280   0.291   0.295   0.303   0.314   0.330
 23 B1   35 A1   36 A1   24 B1   25 B1   37 A1   38 A1   26 B1                 
  0.357   0.366   0.378   0.414   0.418   0.432   0.441   0.491
 16 B2   39 A1   40 A1   41 A1   27 B1   42 A1   28 B1   43 A1                 
  0.500   0.509   0.509   0.620   0.631   0.643   0.652   0.662
 29 B1   44 A1   30 B1   45 A1   31 B1   32 B1   17 B2   46 A1                 
  0.720   0.730   0.742   0.743   0.745   0.772   0.782   0.794
 47 A1   33 B1   48 A1   18 B2   34 B1    7 A2   19 B2   35 B1                 
  0.821   0.822   0.823   0.881   0.884   0.898   0.934   0.936
 49 A1    8 A2   20 B2   50 A1   21 B2   51 A1   52 A1   36 B1                 
  0.955   0.973   1.018   1.024   1.039   1.060   1.067   1.082
 37 B1   53 A1   38 B1   54 A1   55 A1   39 B1   22 B2   56 A1                 
  1.095   1.100   1.133   1.139   1.173   1.192   1.221   1.225
 57 A1   40 B1   41 B1    9 A2   58 A1   42 B1   59 A1   23 B2                 
  1.235   1.273   1.309   1.352   1.376   1.443   1.467   1.475
 10 A2   60 A1   11 A2   24 B2   12 A2   61 A1   43 B1   62 A1                 
  1.581   1.663   1.728   1.776   1.787   1.824   1.831   1.844
 25 B2   63 A1   44 B1   64 A1   45 B1   26 B2   13 A2   65 A1                 
  1.892   1.908   1.909   1.963   1.999   2.008   2.042   2.103
 27 B2   66 A1   46 B1   67 A1   47 B1   28 B2   14 A2   48 B1                 
  2.168   2.218   2.220   2.221   2.236   2.243   2.287   2.323
 68 A1   49 B1   15 A2   29 B2   50 B1   69 A1   30 B2   70 A1                 
  2.352   2.368   2.392   2.579   2.611   2.647   2.684   2.748
 51 B1   16 A2   71 A1   31 B2   52 B1   17 A2   32 B2   72 A1                 
  2.777   2.798   2.810   2.867   2.914   2.935   2.981   2.997
 53 B1   73 A1   54 B1   55 B1   74 A1   75 A1   76 A1   77 A1                 
  3.009   3.026   3.038   3.043   3.066   3.191   3.194   3.205
 56 B1   78 A1   79 A1   57 B1   33 B2   34 B2   18 A2   58 B1                 
  3.210   3.283   3.288   3.321   3.473   3.567   3.631   3.757
 80 A1   35 B2   19 A2   59 B1   36 B2   60 B1   81 A1   61 B1                 
  3.782   3.902   3.919   4.022   4.189   4.384   4.442   4.510
 82 A1   62 B1   83 A1   84 A1   85 A1   63 B1   86 A1   87 A1                 
  4.516   5.123   5.263   5.442   5.447   5.754   5.779   6.187
 64 B1   88 A1   65 B1   89 A1   66 B1   90 A1   67 B1   91 A1                 
 10.544  20.635  20.695  20.708  20.824  20.852  21.124  26.795
 92 A1   93 A1   94 A1   68 B1   95 A1   69 B1   96 A1   37 B2                 
 27.056  27.522  80.200  80.266  80.282  80.380  80.405  80.613
 70 B1   97 A1   98 A1   99 A1   71 B1  100 A1   72 B1  101 A1                 
219.412 322.039 322.101 322.118 322.201 322.223 322.3901431.607
102 A1  103 A1  104 A1   73 B1  105 A1   74 B1  106 A1  107 A1                 
*******1431.6801431.7491431.7681431.9088749.8448749.8938749.909
108 A1   75 B1  109 A1   76 B1  110 A1  111 A1  112 A1   77 B1                 
*******8749.9818750.093
113 A1   78 B1  114 A1                                                         

 Occupation and symmetry of molecular orbitals

 Point group: C2v (4 irreducible representations).

                           A1   A2   B1   B2    All 
 ----------------------------------------------------
 All molecular orbitals:
  - Alpha                  114  19   78   37    248 
  - Beta                   114  19   78   37    248 
 ----------------------------------------------------
 Alpha orbitals:
  - Frozen occupied        7    0    3    1     11  
  - Active occupied        8    1    6    3     18  
  - Active virtual         99   18   69   33    219 
  - Frozen virtual         0    0    0    0     0   
 ----------------------------------------------------
 Beta orbitals:
  - Frozen occupied        7    0    3    1     11  
  - Active occupied        8    1    6    3     18  
  - Active virtual         99   18   69   33    219 
  - Frozen virtual         0    0    0    0     0   
 ----------------------------------------------------

 Import integrals:   CPU 0.00 s  wall 0.00 s

 Import integrals:   CPU 520.54 s  wall 76.94 s

 MP2 amplitudes:   CPU 5.93 s  wall 5.13 s

Running a double precision version
           CCSD T amplitudes will be solved using DIIS.

           Start     Size      MaxIter   EConv     TConv     
           3         7         100       1.00e-06  1.00e-04  
 ------------------------------------------------------------------------------
           Energy (a.u.)   Ediff      Tdiff       Comment
 ------------------------------------------------------------------------------
          -690.65241932                           
     1    -690.65491327   2.49e-03   9.86e-01     
     2    -690.68464534   2.97e-02   1.34e-01     
     3    -690.68508214   4.37e-04   4.67e-02     
     4    -690.68790366   2.82e-03   1.40e-02     Switched to DIIS steps.
     5    -690.68890351   1.00e-03   1.16e-02     
     6    -690.68892958   2.61e-05   2.14e-03     
     7    -690.68891587   1.37e-05   1.01e-03     
     8    -690.68891483   1.04e-06   1.97e-04     
     9    -690.68891493   1.04e-07   7.41e-05     
 ------------------------------------------------------------------------------
          -690.68891493                           CCSD T converged.

End of double precision
 SCF energy                 = -689.68093887
 MP2 energy                 = -690.65241932
 CCSD correlation energy     =   -1.00797607
 CCSD total energy           = -690.68891493

 CCSD  T1^2 = 0.0079  T2^2 = 0.3940  Leading amplitudes:

 Amplitude    Orbitals with energies
 -0.0210       1 (A2) A                  ->    7 (A2) A                   
              -0.3535                          0.7719                     
 -0.0210       1 (A2) B                  ->    7 (A2) B                   
              -0.3535                          0.7719                     
  0.0202       4 (B2) A                  ->    19 (B2) A                  
              -0.3380                          0.7819                     
  0.0202       4 (B2) B                  ->    19 (B2) B                  
              -0.3380                          0.7819                     

 Amplitude    Orbitals with energies
 -0.0691       1 (A2) A      1 (A2) B    ->    4 (A2) A      4 (A2) B     
              -0.3535       -0.3535            0.1018        0.1018       
  0.0691       1 (A2) A      1 (A2) B    ->    4 (A2) B      4 (A2) A     
              -0.3535       -0.3535            0.1018        0.1018       
  0.0691       1 (A2) B      1 (A2) A    ->    4 (A2) A      4 (A2) B     
              -0.3535       -0.3535            0.1018        0.1018       
 -0.0691       1 (A2) B      1 (A2) A    ->    4 (A2) B      4 (A2) A     
              -0.3535       -0.3535            0.1018        0.1018       

 Computing CCSD intemediates for later calculations in double precision
 Finished.

Running a double precision version
           CCSD Lambda amplitudes will be solved using DIIS.
           Start     Size      MaxIter   EConv     LConv     
           3         7         100       1.00e-06  1.00e-04  
 ------------------------------------------------------------------------------
            Enorm      Ldiff       Comment
 ------------------------------------------------------------------------------
     1     5.69e-02   4.60e-02     
     2     1.02e-02   9.83e-04     
     3     3.45e-03   1.86e-03     
     4     1.40e-03   3.03e-04     Switched to DIIS steps.
     5     4.16e-04   3.23e-04     
     6     1.85e-04   6.70e-05     
     7     5.23e-05   2.20e-05     
     8     2.04e-05   4.23e-06     
     9     6.90e-06   6.47e-07     
    10     2.86e-06   5.15e-08     
    11     1.11e-06   8.31e-08     
    12     4.03e-07   7.97e-08     
 ------------------------------------------------------------------------------
                                   CCSD Lambda converged.

 CCSD calculation:   CPU 1581.87 s  wall 238.23 s

        Solving for CVS-EOMEE-CCSD A1 singlet states.

        CVS-EOMEE-CCSD/MP2 right amplitudes will be solved using Davidson.
        Amplitudes will be solved using standard  algorithm.
     Hard-coded thresholds: 
     LinDepThresh=1.00e-15  NormThresh=1.00e-06  ReorthogonThresh=1.00e-02

      Roots     MaxVec    MaxIter   Precond   Conv      Shift    
      6         120       60        1         1.00e-05  0.00e+00  
 ------------------------------------------------------------------------------
      Iter ConvRoots NVecs ResNorm Current eigenvalues (eV)
 ------------------------------------------------------------------------------
      0    0      6     1.79e+00   216.4312   216.8236   217.0584   217.1720   217.5550   217.6087   
      1    0      12    8.98e+00   214.1315   214.4668   214.6784   214.8496   215.1874   215.2851   
      2    0      18    8.12e-02   205.7889   206.0763   206.2233   206.3798   206.7395   206.8326   
      3    0      24    6.68e-03   205.3711   205.7211   205.8464   206.0013   206.3925   206.4733   
      4    0      30    7.41e-03   205.2641   205.6725   205.7956   205.9382   206.3625   206.4372   
      5    0      36    4.15e-02   204.7176   205.4724   205.5636   205.6380   206.2878   206.3402   
      6    0      42    1.08e-02   204.2577   204.9023   205.3142   205.3698   206.1383   206.1735   
      7    0      48    9.65e-03   204.0276   204.7144   205.2809   205.3104   206.0782   206.1238   
      8    0      54    8.81e-03   203.6003   204.5977   205.2039   205.2857   205.9983   206.1050   
      9    0      60    1.08e-02   203.2269   204.5387   205.0540   205.2788   205.8579   206.0834   
      10   0      66    3.05e-03   203.1603   204.5218   204.9178   205.2737   205.8083   205.9145   
      11   0      72    3.73e-03   203.1487   204.5181   204.8451   205.2717   205.7793   205.8319   
      12   0      78    4.72e-03   203.1402   204.5163   204.7251   205.2706   205.6467   205.7874   
      13   0      84    2.84e-03   203.1368   204.5121   204.6098   205.2688   205.5227   205.7614   
      14   0      90    9.03e-04   203.1360   204.5076   204.5741   205.2677   205.4715   205.7410   
      15   1      96    7.81e-04   203.1360*  204.5039   204.5598   205.2675   205.4444   205.7305   
      16   1      101   4.06e-04   203.1360*  204.4994   204.5500   205.2664   205.4225   205.7266   
      17   1      106   1.83e-04   203.1359*  204.4978   204.5472   205.2660   205.4113   205.7235   
      18   2      111   6.26e-05   203.1359*  204.4969   204.5462   205.2659*  205.4055   205.7220   
      19   2      115   3.47e-05   203.1359*  204.4966   204.5457   205.2658*  205.4032   205.7216   
      20   4      119   1.76e-05   203.1359*  204.4966*  204.5457*  205.2658*  205.4023   205.7211   
      21   4      120   1.13e-05   203.1359*  204.4964*  204.5456*  205.2657*  205.4016   205.7211   
      22   5      8     3.00e-06   203.1359*  204.4965*  204.5455*  205.2657*  205.4013   205.7210*  
      23   5      9     3.82e-06   203.1359*  204.4964*  204.5454*  205.2657*  205.4009   205.7210*  
      24   6      10    2.21e-06   203.1359*  204.4964*  204.5455*  205.2657*  205.4010*  205.7210*  

     Davidson procedure converged

 EOMEE transition 1/A1
 Total energy = -683.22380696 a.u.  Excitation energy = 203.1359 eV.
 R0^2 = 0.0000  R1^2 = 0.8812  R2_CCVV^2 = 0.0038  R2_COVV^2 = 0.0575  Res^2 = 7.45e-07
 Conv-d = yes

 Amplitude    Transitions between orbitals
  0.2888       7 (A1) A                  ->    29 (A1) A                  
  0.2888       7 (A1) B                  ->    29 (A1) B                  
  0.2859       7 (A1) A                  ->    28 (A1) A                  
  0.2859       7 (A1) B                  ->    28 (A1) B                  
 -0.2385       7 (A1) A                  ->    32 (A1) A                  
 -0.2385       7 (A1) B                  ->    32 (A1) B                  
  0.2273       7 (A1) A                  ->    37 (A1) A                  
  0.2273       7 (A1) B                  ->    37 (A1) B                  
  0.1811       7 (A1) A                  ->    35 (A1) A                  
  0.1811       7 (A1) B                  ->    35 (A1) B                  
 -0.1529       7 (A1) A                  ->    25 (A1) A                  
 -0.1529       7 (A1) B                  ->    25 (A1) B                  
  0.1300       7 (A1) A                  ->    27 (A1) A                  
  0.1300       7 (A1) B                  ->    27 (A1) B                  
 -0.1106       7 (A1) A                  ->    38 (A1) A                  
 -0.1106       7 (A1) B                  ->    38 (A1) B                  
 -0.1062       7 (A1) A                  ->    36 (A1) A                  
 -0.1062       7 (A1) B                  ->    36 (A1) B                  

              Summary of significant orbitals:

               Number  Type             Irrep      Energy
               9       Occ  Alpha       7 (A1)     -8.0343
               9       Occ  Beta        7 (A1)     -8.0343
               52      Vir  Alpha      25 (A1)      0.0912
               58      Vir  Alpha      27 (A1)      0.1260
               60      Vir  Alpha      28 (A1)      0.1690
               62      Vir  Alpha      29 (A1)      0.1761
               69      Vir  Alpha      32 (A1)      0.2216
               79      Vir  Alpha      35 (A1)      0.2644
               80      Vir  Alpha      36 (A1)      0.2796
               83      Vir  Alpha      37 (A1)      0.3026
               84      Vir  Alpha      38 (A1)      0.3136
               52      Vir  Beta       25 (A1)      0.0912
               58      Vir  Beta       27 (A1)      0.1260
               60      Vir  Beta       28 (A1)      0.1690
               62      Vir  Beta       29 (A1)      0.1761
               69      Vir  Beta       32 (A1)      0.2216
               79      Vir  Beta       35 (A1)      0.2644
               80      Vir  Beta       36 (A1)      0.2796
               83      Vir  Beta       37 (A1)      0.3026
               84      Vir  Beta       38 (A1)      0.3136


 EOMEE transition 2/A1
 Total energy = -683.17381064 a.u.  Excitation energy = 204.4964 eV.
 R0^2 = 0.0000  R1^2 = 0.8601  R2_CCVV^2 = 0.0036  R2_COVV^2 = 0.0681  Res^2 = 4.70e-07
 Conv-d = yes

 Amplitude    Transitions between orbitals
 -0.4091       1 (B2) A                  ->    10 (B2) A                  
 -0.4091       1 (B2) B                  ->    10 (B2) B                  
  0.2699       7 (A1) A                  ->    23 (A1) A                  
  0.2699       7 (A1) B                  ->    23 (A1) B                  
  0.2370       7 (A1) A                  ->    17 (A1) A                  
  0.2370       7 (A1) B                  ->    17 (A1) B                  
 -0.1777       7 (A1) A                  ->    16 (A1) A                  
 -0.1777       7 (A1) B                  ->    16 (A1) B                  
  0.1120       7 (A1) A                  ->    30 (A1) A                  
  0.1120       7 (A1) B                  ->    30 (A1) B                  
  0.1081       1 (B2) A                  ->    6 (B2) A                   
  0.1081       1 (B2) B                  ->    6 (B2) B                   
 -0.1014       7 (A1) A                  ->    22 (A1) A                  
 -0.1014       7 (A1) B                  ->    22 (A1) B                  

              Summary of significant orbitals:

               Number  Type             Irrep      Energy
               9       Occ  Alpha       7 (A1)     -8.0343
               11      Occ  Alpha       1 (B2)     -8.0311
               9       Occ  Beta        7 (A1)     -8.0343
               11      Occ  Beta        1 (B2)     -8.0311
               30      Vir  Alpha      16 (A1)      0.0143
               32      Vir  Alpha      17 (A1)      0.0212
               46      Vir  Alpha      22 (A1)      0.0682
               49      Vir  Alpha      23 (A1)      0.0734
               65      Vir  Alpha      30 (A1)      0.1918
               37      Vir  Alpha       6 (B2)      0.0436
               56      Vir  Alpha      10 (B2)      0.1035
               30      Vir  Beta       16 (A1)      0.0143
               32      Vir  Beta       17 (A1)      0.0212
               46      Vir  Beta       22 (A1)      0.0682
               49      Vir  Beta       23 (A1)      0.0734
               65      Vir  Beta       30 (A1)      0.1918
               37      Vir  Beta        6 (B2)      0.0436
               56      Vir  Beta       10 (B2)      0.1035


 EOMEE transition 3/A1
 Total energy = -683.17200680 a.u.  Excitation energy = 204.5455 eV.
 R0^2 = 0.0000  R1^2 = 0.8580  R2_CCVV^2 = 0.0037  R2_COVV^2 = 0.0692  Res^2 = 6.16e-07
 Conv-d = yes

 Amplitude    Transitions between orbitals
 -0.4456       1 (B2) A                  ->    10 (B2) A                  
 -0.4456       1 (B2) B                  ->    10 (B2) B                  
 -0.2357       7 (A1) A                  ->    23 (A1) A                  
 -0.2357       7 (A1) B                  ->    23 (A1) B                  
 -0.2041       7 (A1) A                  ->    17 (A1) A                  
 -0.2041       7 (A1) B                  ->    17 (A1) B                  
  0.1642       7 (A1) A                  ->    16 (A1) A                  
  0.1642       7 (A1) B                  ->    16 (A1) B                  
  0.1384       1 (B2) A                  ->    6 (B2) A                   
  0.1384       1 (B2) B                  ->    6 (B2) B                   
  0.1047       1 (B2) A                  ->    5 (B2) A                   
  0.1047       1 (B2) B                  ->    5 (B2) B                   
 -0.1028       7 (A1) A                  ->    30 (A1) A                  
 -0.1028       7 (A1) B                  ->    30 (A1) B                  

              Summary of significant orbitals:

               Number  Type             Irrep      Energy
               9       Occ  Alpha       7 (A1)     -8.0343
               11      Occ  Alpha       1 (B2)     -8.0311
               9       Occ  Beta        7 (A1)     -8.0343
               11      Occ  Beta        1 (B2)     -8.0311
               30      Vir  Alpha      16 (A1)      0.0143
               32      Vir  Alpha      17 (A1)      0.0212
               49      Vir  Alpha      23 (A1)      0.0734
               65      Vir  Alpha      30 (A1)      0.1918
               33      Vir  Alpha       5 (B2)      0.0317
               37      Vir  Alpha       6 (B2)      0.0436
               56      Vir  Alpha      10 (B2)      0.1035
               30      Vir  Beta       16 (A1)      0.0143
               32      Vir  Beta       17 (A1)      0.0212
               49      Vir  Beta       23 (A1)      0.0734
               65      Vir  Beta       30 (A1)      0.1918
               33      Vir  Beta        5 (B2)      0.0317
               37      Vir  Beta        6 (B2)      0.0436
               56      Vir  Beta       10 (B2)      0.1035


 EOMEE transition 4/A1
 Total energy = -683.14553842 a.u.  Excitation energy = 205.2657 eV.
 R0^2 = 0.0000  R1^2 = 0.8644  R2_CCVV^2 = 0.0037  R2_COVV^2 = 0.0660  Res^2 = 3.54e-07
 Conv-d = yes

 Amplitude    Transitions between orbitals
 -0.3585       3 (B1) A                  ->    10 (B1) A                  
 -0.3585       3 (B1) B                  ->    10 (B1) B                  
  0.3258       3 (B1) A                  ->    11 (B1) A                  
  0.3258       3 (B1) B                  ->    11 (B1) B                  
  0.1858       3 (B1) A                  ->    14 (B1) A                  
  0.1858       3 (B1) B                  ->    14 (B1) B                  
 -0.1762       3 (B1) A                  ->    17 (B1) A                  
 -0.1762       3 (B1) B                  ->    17 (B1) B                  
  0.1530       3 (B1) A                  ->    12 (B1) A                  
  0.1530       3 (B1) B                  ->    12 (B1) B                  
  0.1510       3 (B1) A                  ->    16 (B1) A                  
  0.1510       3 (B1) B                  ->    16 (B1) B                  
  0.1224       1 (B2) A                  ->    5 (B2) A                   
  0.1224       1 (B2) B                  ->    5 (B2) B                   
 -0.1144       3 (B1) A                  ->    13 (B1) A                  
 -0.1144       3 (B1) B                  ->    13 (B1) B                  
 -0.1126       3 (B1) A                  ->    18 (B1) A                  
 -0.1126       3 (B1) B                  ->    18 (B1) B                  
  0.1047       1 (B2) A                  ->    6 (B2) A                   
  0.1047       1 (B2) B                  ->    6 (B2) B                   

              Summary of significant orbitals:

               Number  Type             Irrep      Energy
               10      Occ  Alpha       3 (B1)     -8.0312
               11      Occ  Alpha       1 (B2)     -8.0311
               10      Occ  Beta        3 (B1)     -8.0312
               11      Occ  Beta        1 (B2)     -8.0311
               31      Vir  Alpha      10 (B1)      0.0202
               35      Vir  Alpha      11 (B1)      0.0334
               40      Vir  Alpha      12 (B1)      0.0538
               45      Vir  Alpha      13 (B1)      0.0647
               48      Vir  Alpha      14 (B1)      0.0702
               53      Vir  Alpha      16 (B1)      0.0957
               57      Vir  Alpha      17 (B1)      0.1061
               61      Vir  Alpha      18 (B1)      0.1724
               33      Vir  Alpha       5 (B2)      0.0317
               37      Vir  Alpha       6 (B2)      0.0436
               31      Vir  Beta       10 (B1)      0.0202
               35      Vir  Beta       11 (B1)      0.0334
               40      Vir  Beta       12 (B1)      0.0538
               45      Vir  Beta       13 (B1)      0.0647
               48      Vir  Beta       14 (B1)      0.0702
               53      Vir  Beta       16 (B1)      0.0957
               57      Vir  Beta       17 (B1)      0.1061
               61      Vir  Beta       18 (B1)      0.1724
               33      Vir  Beta        5 (B2)      0.0317
               37      Vir  Beta        6 (B2)      0.0436


 EOMEE transition 5/A1
 Total energy = -683.14056688 a.u.  Excitation energy = 205.4010 eV.
 R0^2 = 0.0000  R1^2 = 0.8637  R2_CCVV^2 = 0.0037  R2_COVV^2 = 0.0663  Res^2 = 6.49e-06
 Conv-d = yes

 Amplitude    Transitions between orbitals
 -0.4011       1 (B2) A                  ->    5 (B2) A                   
 -0.4011       1 (B2) B                  ->    5 (B2) B                   
 -0.3115       1 (B2) A                  ->    6 (B2) A                   
 -0.3115       1 (B2) B                  ->    6 (B2) B                   
 -0.1957       1 (B2) A                  ->    7 (B2) A                   
 -0.1957       1 (B2) B                  ->    7 (B2) B                   
 -0.1754       1 (B2) A                  ->    11 (B2) A                  
 -0.1754       1 (B2) B                  ->    11 (B2) B                  
 -0.1496       1 (B2) A                  ->    12 (B2) A                  
 -0.1496       1 (B2) B                  ->    12 (B2) B                  
 -0.1486       1 (B2) A                  ->    10 (B2) A                  
 -0.1486       1 (B2) B                  ->    10 (B2) B                  
 -0.1189       3 (B1) A                  ->    10 (B1) A                  
 -0.1189       3 (B1) B                  ->    10 (B1) B                  

              Summary of significant orbitals:

               Number  Type             Irrep      Energy
               10      Occ  Alpha       3 (B1)     -8.0312
               11      Occ  Alpha       1 (B2)     -8.0311
               10      Occ  Beta        3 (B1)     -8.0312
               11      Occ  Beta        1 (B2)     -8.0311
               31      Vir  Alpha      10 (B1)      0.0202
               33      Vir  Alpha       5 (B2)      0.0317
               37      Vir  Alpha       6 (B2)      0.0436
               42      Vir  Alpha       7 (B2)      0.0559
               56      Vir  Alpha      10 (B2)      0.1035
               59      Vir  Alpha      11 (B2)      0.1629
               64      Vir  Alpha      12 (B2)      0.1813
               31      Vir  Beta       10 (B1)      0.0202
               33      Vir  Beta        5 (B2)      0.0317
               37      Vir  Beta        6 (B2)      0.0436
               42      Vir  Beta        7 (B2)      0.0559
               56      Vir  Beta       10 (B2)      0.1035
               59      Vir  Beta       11 (B2)      0.1629
               64      Vir  Beta       12 (B2)      0.1813


 EOMEE transition 6/A1
 Total energy = -683.12880546 a.u.  Excitation energy = 205.7210 eV.
 R0^2 = 0.0000  R1^2 = 0.8602  R2_CCVV^2 = 0.0036  R2_COVV^2 = 0.0681  Res^2 = 4.61e-06
 Conv-d = yes

 Amplitude    Transitions between orbitals
 -0.3473       7 (A1) A                  ->    19 (A1) A                  
 -0.3473       7 (A1) B                  ->    19 (A1) B                  
  0.3285       7 (A1) A                  ->    16 (A1) A                  
  0.3285       7 (A1) B                  ->    16 (A1) B                  
  0.2202       7 (A1) A                  ->    18 (A1) A                  
  0.2202       7 (A1) B                  ->    18 (A1) B                  
  0.1904       7 (A1) A                  ->    17 (A1) A                  
  0.1904       7 (A1) B                  ->    17 (A1) B                  
 -0.1638       7 (A1) A                  ->    25 (A1) A                  
 -0.1638       7 (A1) B                  ->    25 (A1) B                  
 -0.1490       7 (A1) A                  ->    20 (A1) A                  
 -0.1490       7 (A1) B                  ->    20 (A1) B                  
 -0.1127       7 (A1) A                  ->    29 (A1) A                  
 -0.1127       7 (A1) B                  ->    29 (A1) B                  

              Summary of significant orbitals:

               Number  Type             Irrep      Energy
               9       Occ  Alpha       7 (A1)     -8.0343
               9       Occ  Beta        7 (A1)     -8.0343
               30      Vir  Alpha      16 (A1)      0.0143
               32      Vir  Alpha      17 (A1)      0.0212
               34      Vir  Alpha      18 (A1)      0.0319
               38      Vir  Alpha      19 (A1)      0.0450
               39      Vir  Alpha      20 (A1)      0.0478
               52      Vir  Alpha      25 (A1)      0.0912
               62      Vir  Alpha      29 (A1)      0.1761
               30      Vir  Beta       16 (A1)      0.0143
               32      Vir  Beta       17 (A1)      0.0212
               34      Vir  Beta       18 (A1)      0.0319
               38      Vir  Beta       19 (A1)      0.0450
               39      Vir  Beta       20 (A1)      0.0478
               52      Vir  Beta       25 (A1)      0.0912
               62      Vir  Beta       29 (A1)      0.1761


      CVS-EOM-CCSD/MP2 left amplitudes will be solved using Davidson.
        Amplitudes will be solved using MOM  algorithm.
     Hard-coded thresholds: 
     LinDepThresh=1.00e-15  NormThresh=1.00e-06  ReorthogonThresh=1.00e-02

      Roots     MaxVec    MaxIter   Precond   Conv      Shift    
      6         120       60        1         1.00e-05  0.00e+00  
 ------------------------------------------------------------------------------
      Iter ConvRoots NVecs ResNorm Current eigenvalues (eV)
 ------------------------------------------------------------------------------
      0    0      6     1.62e-02   203.1359   204.4964   204.5455   205.2657   205.4010   205.7210   
      1    0      12    1.50e-01   203.1359   204.4964   204.5454   205.2657   205.4009   205.7210   
      2    0      18    1.01e-03   203.1359   204.4964   204.5455   205.2657   205.4009   205.7210   
      3    0      24    8.42e-05   203.1359   204.4964   204.5455   205.2657   205.4008   205.7209   
      4    0      30    7.04e-04   203.1359   204.4964   204.5455   205.2657   205.4012   205.7209   
      5    3      36    2.03e-04   203.1359*  204.4964*  204.5455   205.2657*  205.4009   205.7207   
      6    6      39    3.74e-06   203.1359*  204.4964*  204.5455*  205.2657*  205.4009*  205.7210*  

     Davidson procedure converged

        Solving for CVS-EOMEE-CCSD B1 singlet states.

        CVS-EOMEE-CCSD/MP2 right amplitudes will be solved using Davidson.
        Amplitudes will be solved using standard  algorithm.
     Hard-coded thresholds: 
     LinDepThresh=1.00e-15  NormThresh=1.00e-06  ReorthogonThresh=1.00e-02

      Roots     MaxVec    MaxIter   Precond   Conv      Shift    
      6         120       60        1         1.00e-05  0.00e+00  
 ------------------------------------------------------------------------------
      Iter ConvRoots NVecs ResNorm Current eigenvalues (eV)
 ------------------------------------------------------------------------------
      0    0      6     1.79e+00   216.3532   216.9012   217.0943   217.5160   217.5312   217.6322   
      1    0      12    9.00e+00   214.0070   214.5907   214.7256   215.1413   215.1612   215.3110   
      2    0      18    8.01e-02   205.6523   206.2096   206.2474   206.7005   206.7189   206.8711   
      3    0      24    6.35e-03   205.2401   205.8475   205.8752   206.3475   206.3862   206.5175   
      4    0      30    6.90e-03   205.1361   205.7952   205.8143   206.3143   206.3596   206.4845   
      5    0      36    4.36e-02   204.5506   205.3386   205.6280   206.2031   206.3172   206.4152   
      6    0      42    9.34e-03   204.1053   204.6626   205.4371   206.0154   206.2471   206.2880   
      7    0      48    1.36e-02   203.8105   204.4982   205.4015   205.9508   206.2238   206.2311   
      8    0      54    1.02e-02   203.1800   204.4037   205.3890   205.8324   206.1732   206.2151   
      9    0      60    5.52e-03   202.8443   204.3694   205.3858   205.7024   206.1075   206.1877   
      10   0      66    1.10e-03   202.7897   204.3591   205.3830   205.6631   206.0834   206.1555   
      11   0      72    1.26e-03   202.7770   204.3574   205.3815   205.6457   206.0700   206.1309   
      12   0      78    1.47e-03   202.7701   204.3571   205.3813   205.6177   206.0455   206.0874   
      13   0      84    1.59e-03   202.7683   204.3568   205.3808   205.5913   205.9872   206.0694   
      14   2      90    6.20e-04   202.7680*  204.3568*  205.3806   205.5756   205.9327   206.0640   
      15   3      94    4.48e-04   202.7680*  204.3568*  205.3808*  205.5673   205.9015   206.0622   
      16   3      97    4.07e-04   202.7680*  204.3568*  205.3808*  205.5621   205.8842   206.0595   
      17   3      100   4.12e-03   202.7680*  204.3568*  205.3808*  205.5578   205.8140   205.9521   
      18   3      103   3.78e-03   202.7680*  204.3568*  205.3808*  205.5538   205.6351   205.8949   
      19   3      106   2.60e-03   202.7680*  204.3568*  205.3567   205.3808*  205.5597   205.8786   
      20   3      109   6.51e-04   202.7680*  204.3568*  205.2744   205.3808*  205.5589   205.8761   
      21   3      112   2.55e-04   202.7680*  204.3568*  205.2348   205.3808*  205.5584   205.8746   
      22   3      115   1.39e-04   202.7680*  204.3568*  205.2239   205.3808*  205.5584   205.8731   
      23   4      118   6.12e-05   202.7680*  204.3568*  205.2155   205.3808*  205.5583*  205.8731   
      24   4      120   2.34e-05   202.7680*  204.3568*  205.2128   205.3808*  205.5582*  205.8727   
      25   5      8     6.76e-06   202.7680*  204.3568*  205.2119   205.3808*  205.5582*  205.8726*  
      26   5      9     8.72e-06   202.7680*  204.3568*  205.2113   205.3808*  205.5582*  205.8725*  
      27   5      10    3.33e-06   202.7680*  204.3568*  205.2110   205.3808*  205.5582*  205.8725*  
      28   5      11    3.33e-06   202.7680*  204.3568*  205.2107   205.3808*  205.5582*  205.8724*  
      29   6      12    1.86e-06   202.7680*  204.3568*  205.2106*  205.3808*  205.5582*  205.8725*  

     Davidson procedure converged

 EOMEE transition 1/B1
 Total energy = -683.23732895 a.u.  Excitation energy = 202.7680 eV.
 R0^2 = 0.0000  R1^2 = 0.8875  R2_CCVV^2 = 0.0038  R2_COVV^2 = 0.0543  Res^2 = 1.91e-06
 Conv-d = yes

 Amplitude    Transitions between orbitals
  0.2865       3 (B1) A                  ->    29 (A1) A                  
  0.2865       3 (B1) B                  ->    29 (A1) B                  
  0.2716       3 (B1) A                  ->    28 (A1) A                  
  0.2716       3 (B1) B                  ->    28 (A1) B                  
 -0.2539       3 (B1) A                  ->    32 (A1) A                  
 -0.2539       3 (B1) B                  ->    32 (A1) B                  
  0.2403       3 (B1) A                  ->    37 (A1) A                  
  0.2403       3 (B1) B                  ->    37 (A1) B                  
  0.1941       3 (B1) A                  ->    35 (A1) A                  
  0.1941       3 (B1) B                  ->    35 (A1) B                  
 -0.1427       3 (B1) A                  ->    25 (A1) A                  
 -0.1427       3 (B1) B                  ->    25 (A1) B                  
  0.1296       3 (B1) A                  ->    27 (A1) A                  
  0.1296       3 (B1) B                  ->    27 (A1) B                  
 -0.1212       3 (B1) A                  ->    38 (A1) A                  
 -0.1212       3 (B1) B                  ->    38 (A1) B                  
 -0.1144       3 (B1) A                  ->    36 (A1) A                  
 -0.1144       3 (B1) B                  ->    36 (A1) B                  
 -0.1032       3 (B1) A                  ->    30 (A1) A                  
 -0.1032       3 (B1) B                  ->    30 (A1) B                  

              Summary of significant orbitals:

               Number  Type             Irrep      Energy
               10      Occ  Alpha       3 (B1)     -8.0312
               10      Occ  Beta        3 (B1)     -8.0312
               52      Vir  Alpha      25 (A1)      0.0912
               58      Vir  Alpha      27 (A1)      0.1260
               60      Vir  Alpha      28 (A1)      0.1690
               62      Vir  Alpha      29 (A1)      0.1761
               65      Vir  Alpha      30 (A1)      0.1918
               69      Vir  Alpha      32 (A1)      0.2216
               79      Vir  Alpha      35 (A1)      0.2644
               80      Vir  Alpha      36 (A1)      0.2796
               83      Vir  Alpha      37 (A1)      0.3026
               84      Vir  Alpha      38 (A1)      0.3136
               52      Vir  Beta       25 (A1)      0.0912
               58      Vir  Beta       27 (A1)      0.1260
               60      Vir  Beta       28 (A1)      0.1690
               62      Vir  Beta       29 (A1)      0.1761
               65      Vir  Beta       30 (A1)      0.1918
               69      Vir  Beta       32 (A1)      0.2216
               79      Vir  Beta       35 (A1)      0.2644
               80      Vir  Beta       36 (A1)      0.2796
               83      Vir  Beta       37 (A1)      0.3026
               84      Vir  Beta       38 (A1)      0.3136


 EOMEE transition 2/B1
 Total energy = -683.17894165 a.u.  Excitation energy = 204.3568 eV.
 R0^2 = 0.0000  R1^2 = 0.8699  R2_CCVV^2 = 0.0037  R2_COVV^2 = 0.0632  Res^2 = 2.14e-07
 Conv-d = yes

 Amplitude    Transitions between orbitals
  0.3762       3 (B1) A                  ->    23 (A1) A                  
  0.3762       3 (B1) B                  ->    23 (A1) B                  
  0.3299       3 (B1) A                  ->    17 (A1) A                  
  0.3299       3 (B1) B                  ->    17 (A1) B                  
 -0.2455       3 (B1) A                  ->    16 (A1) A                  
 -0.2455       3 (B1) B                  ->    16 (A1) B                  
  0.1581       3 (B1) A                  ->    30 (A1) A                  
  0.1581       3 (B1) B                  ->    30 (A1) B                  
 -0.1412       3 (B1) A                  ->    22 (A1) A                  
 -0.1412       3 (B1) B                  ->    22 (A1) B                  
  0.1359       3 (B1) A                  ->    32 (A1) A                  
  0.1359       3 (B1) B                  ->    32 (A1) B                  
  0.1129       3 (B1) A                  ->    24 (A1) A                  
  0.1129       3 (B1) B                  ->    24 (A1) B                  
  0.1094       3 (B1) A                  ->    29 (A1) A                  
  0.1094       3 (B1) B                  ->    29 (A1) B                  

              Summary of significant orbitals:

               Number  Type             Irrep      Energy
               10      Occ  Alpha       3 (B1)     -8.0312
               10      Occ  Beta        3 (B1)     -8.0312
               30      Vir  Alpha      16 (A1)      0.0143
               32      Vir  Alpha      17 (A1)      0.0212
               46      Vir  Alpha      22 (A1)      0.0682
               49      Vir  Alpha      23 (A1)      0.0734
               51      Vir  Alpha      24 (A1)      0.0779
               62      Vir  Alpha      29 (A1)      0.1761
               65      Vir  Alpha      30 (A1)      0.1918
               69      Vir  Alpha      32 (A1)      0.2216
               30      Vir  Beta       16 (A1)      0.0143
               32      Vir  Beta       17 (A1)      0.0212
               46      Vir  Beta       22 (A1)      0.0682
               49      Vir  Beta       23 (A1)      0.0734
               51      Vir  Beta       24 (A1)      0.0779
               62      Vir  Beta       29 (A1)      0.1761
               65      Vir  Beta       30 (A1)      0.1918
               69      Vir  Beta       32 (A1)      0.2216


 EOMEE transition 3/B1
 Total energy = -683.14756356 a.u.  Excitation energy = 205.2106 eV.
 R0^2 = 0.0000  R1^2 = 0.8426  R2_CCVV^2 = 0.0036  R2_COVV^2 = 0.0769  Res^2 = 4.26e-06
 Conv-d = yes

 Amplitude    Transitions between orbitals
  0.6112       1 (B2) A                  ->    4 (A2) A                   
  0.6112       1 (B2) B                  ->    4 (A2) B                   
 -0.1879       1 (B2) A                  ->    3 (A2) A                   
 -0.1879       1 (B2) B                  ->    3 (A2) B                   

              Summary of significant orbitals:

               Number  Type             Irrep      Energy
               11      Occ  Alpha       1 (B2)     -8.0311
               11      Occ  Beta        1 (B2)     -8.0311
               41      Vir  Alpha       3 (A2)      0.0554
               55      Vir  Alpha       4 (A2)      0.1018
               41      Vir  Beta        3 (A2)      0.0554
               55      Vir  Beta        4 (A2)      0.1018


 EOMEE transition 4/B1
 Total energy = -683.14130870 a.u.  Excitation energy = 205.3808 eV.
 R0^2 = 0.0000  R1^2 = 0.8639  R2_CCVV^2 = 0.0036  R2_COVV^2 = 0.0663  Res^2 = 3.49e-06
 Conv-d = yes

 Amplitude    Transitions between orbitals
  0.3731       7 (A1) A                  ->    10 (B1) A                  
  0.3731       7 (A1) B                  ->    10 (B1) B                  
 -0.3407       7 (A1) A                  ->    11 (B1) A                  
 -0.3407       7 (A1) B                  ->    11 (B1) B                  
 -0.1951       7 (A1) A                  ->    14 (B1) A                  
 -0.1951       7 (A1) B                  ->    14 (B1) B                  
  0.1875       7 (A1) A                  ->    17 (B1) A                  
  0.1875       7 (A1) B                  ->    17 (B1) B                  
 -0.1598       7 (A1) A                  ->    16 (B1) A                  
 -0.1598       7 (A1) B                  ->    16 (B1) B                  
 -0.1593       7 (A1) A                  ->    12 (B1) A                  
 -0.1593       7 (A1) B                  ->    12 (B1) B                  
  0.1215       7 (A1) A                  ->    18 (B1) A                  
  0.1215       7 (A1) B                  ->    18 (B1) B                  
  0.1200       7 (A1) A                  ->    13 (B1) A                  
  0.1200       7 (A1) B                  ->    13 (B1) B                  

              Summary of significant orbitals:

               Number  Type             Irrep      Energy
               9       Occ  Alpha       7 (A1)     -8.0343
               9       Occ  Beta        7 (A1)     -8.0343
               31      Vir  Alpha      10 (B1)      0.0202
               35      Vir  Alpha      11 (B1)      0.0334
               40      Vir  Alpha      12 (B1)      0.0538
               45      Vir  Alpha      13 (B1)      0.0647
               48      Vir  Alpha      14 (B1)      0.0702
               53      Vir  Alpha      16 (B1)      0.0957
               57      Vir  Alpha      17 (B1)      0.1061
               61      Vir  Alpha      18 (B1)      0.1724
               31      Vir  Beta       10 (B1)      0.0202
               35      Vir  Beta       11 (B1)      0.0334
               40      Vir  Beta       12 (B1)      0.0538
               45      Vir  Beta       13 (B1)      0.0647
               48      Vir  Beta       14 (B1)      0.0702
               53      Vir  Beta       16 (B1)      0.0957
               57      Vir  Beta       17 (B1)      0.1061
               61      Vir  Beta       18 (B1)      0.1724


 EOMEE transition 5/B1
 Total energy = -683.13478961 a.u.  Excitation energy = 205.5582 eV.
 R0^2 = 0.0000  R1^2 = 0.8616  R2_CCVV^2 = 0.0036  R2_COVV^2 = 0.0674  Res^2 = 1.77e-07
 Conv-d = yes

 Amplitude    Transitions between orbitals
  0.3614       3 (B1) A                  ->    19 (A1) A                  
  0.3614       3 (B1) B                  ->    19 (A1) B                  
 -0.3242       3 (B1) A                  ->    16 (A1) A                  
 -0.3242       3 (B1) B                  ->    16 (A1) B                  
 -0.2321       3 (B1) A                  ->    18 (A1) A                  
 -0.2321       3 (B1) B                  ->    18 (A1) B                  
  0.1765       3 (B1) A                  ->    25 (A1) A                  
  0.1765       3 (B1) B                  ->    25 (A1) B                  
 -0.1713       3 (B1) A                  ->    17 (A1) A                  
 -0.1713       3 (B1) B                  ->    17 (A1) B                  
  0.1666       3 (B1) A                  ->    20 (A1) A                  
  0.1666       3 (B1) B                  ->    20 (A1) B                  
  0.1066       3 (B1) A                  ->    29 (A1) A                  
  0.1066       3 (B1) B                  ->    29 (A1) B                  

              Summary of significant orbitals:

               Number  Type             Irrep      Energy
               10      Occ  Alpha       3 (B1)     -8.0312
               10      Occ  Beta        3 (B1)     -8.0312
               30      Vir  Alpha      16 (A1)      0.0143
               32      Vir  Alpha      17 (A1)      0.0212
               34      Vir  Alpha      18 (A1)      0.0319
               38      Vir  Alpha      19 (A1)      0.0450
               39      Vir  Alpha      20 (A1)      0.0478
               52      Vir  Alpha      25 (A1)      0.0912
               62      Vir  Alpha      29 (A1)      0.1761
               30      Vir  Beta       16 (A1)      0.0143
               32      Vir  Beta       17 (A1)      0.0212
               34      Vir  Beta       18 (A1)      0.0319
               38      Vir  Beta       19 (A1)      0.0450
               39      Vir  Beta       20 (A1)      0.0478
               52      Vir  Beta       25 (A1)      0.0912
               62      Vir  Beta       29 (A1)      0.1761


 EOMEE transition 6/B1
 Total energy = -683.12324108 a.u.  Excitation energy = 205.8725 eV.
 R0^2 = 0.0000  R1^2 = 0.8615  R2_CCVV^2 = 0.0037  R2_COVV^2 = 0.0674  Res^2 = 1.09e-06
 Conv-d = yes

 Amplitude    Transitions between orbitals
  0.3868       3 (B1) A                  ->    16 (A1) A                  
  0.3868       3 (B1) B                  ->    16 (A1) B                  
  0.3334       3 (B1) A                  ->    19 (A1) A                  
  0.3334       3 (B1) B                  ->    19 (A1) B                  
  0.2481       3 (B1) A                  ->    23 (A1) A                  
  0.2481       3 (B1) B                  ->    23 (A1) B                  
 -0.1657       3 (B1) A                  ->    28 (A1) A                  
 -0.1657       3 (B1) B                  ->    28 (A1) B                  
  0.1494       3 (B1) A                  ->    21 (A1) A                  
  0.1494       3 (B1) B                  ->    21 (A1) B                  
  0.1210       3 (B1) A                  ->    29 (A1) A                  
  0.1210       3 (B1) B                  ->    29 (A1) B                  
  0.1166       3 (B1) A                  ->    18 (A1) A                  
  0.1166       3 (B1) B                  ->    18 (A1) B                  

              Summary of significant orbitals:

               Number  Type             Irrep      Energy
               10      Occ  Alpha       3 (B1)     -8.0312
               10      Occ  Beta        3 (B1)     -8.0312
               30      Vir  Alpha      16 (A1)      0.0143
               34      Vir  Alpha      18 (A1)      0.0319
               38      Vir  Alpha      19 (A1)      0.0450
               43      Vir  Alpha      21 (A1)      0.0629
               49      Vir  Alpha      23 (A1)      0.0734
               60      Vir  Alpha      28 (A1)      0.1690
               62      Vir  Alpha      29 (A1)      0.1761
               30      Vir  Beta       16 (A1)      0.0143
               34      Vir  Beta       18 (A1)      0.0319
               38      Vir  Beta       19 (A1)      0.0450
               43      Vir  Beta       21 (A1)      0.0629
               49      Vir  Beta       23 (A1)      0.0734
               60      Vir  Beta       28 (A1)      0.1690
               62      Vir  Beta       29 (A1)      0.1761


      CVS-EOM-CCSD/MP2 left amplitudes will be solved using Davidson.
        Amplitudes will be solved using MOM  algorithm.
     Hard-coded thresholds: 
     LinDepThresh=1.00e-15  NormThresh=1.00e-06  ReorthogonThresh=1.00e-02

      Roots     MaxVec    MaxIter   Precond   Conv      Shift    
      6         120       60        1         1.00e-05  0.00e+00  
 ------------------------------------------------------------------------------
      Iter ConvRoots NVecs ResNorm Current eigenvalues (eV)
 ------------------------------------------------------------------------------
      0    0      6     1.64e-02   202.7680   204.3568   205.2106   205.3808   205.5582   205.8725   
      1    0      12    2.65e-01   202.7679   204.3568   205.2106   205.3806   205.5582   205.8724   
      2    0      18    1.49e-03   202.7679   204.3568   205.2106   205.3806   205.5582   205.8724   
      3    0      24    1.09e-04   202.7679   204.3568   205.2106   205.3806   205.5582   205.8724   
      4    4      30    1.95e-05   202.7679   204.3568*  205.2106   205.3806*  205.5582*  205.8724*  
      5    5      32    7.47e-06   202.7679*  204.3568*  205.2106   205.3806*  205.5582*  205.8724*  
      6    5      33    4.98e-06   202.7679*  204.3568*  205.2106   205.3806*  205.5582*  205.8724*  
      7    6      34    3.46e-06   202.7679*  204.3568*  205.2106*  205.3806*  205.5582*  205.8724*  

     Davidson procedure converged

        Solving for CVS-EOMEE-CCSD B2 singlet states.

        CVS-EOMEE-CCSD/MP2 right amplitudes will be solved using Davidson.
        Amplitudes will be solved using standard  algorithm.
     Hard-coded thresholds: 
     LinDepThresh=1.00e-15  NormThresh=1.00e-06  ReorthogonThresh=1.00e-02

      Roots     MaxVec    MaxIter   Precond   Conv      Shift    
      6         120       60        1         1.00e-05  0.00e+00  
 ------------------------------------------------------------------------------
      Iter ConvRoots NVecs ResNorm Current eigenvalues (eV)
 ------------------------------------------------------------------------------
      0    0      6     1.79e+00   216.3127   216.9494   217.1387   217.3387   217.5189   217.5546   
      1    0      12    9.04e+00   213.9604   214.5711   214.8148   214.9711   215.1539   215.1746   
      2    0      18    7.96e-02   205.6325   206.0922   206.3606   206.5896   206.7191   206.7240   
      3    0      24    6.59e-03   205.2199   205.7212   205.9781   206.2510   206.3568   206.3930   
      4    0      30    7.24e-03   205.1130   205.6519   205.9239   206.2163   206.3203   206.3665   
      5    0      36    4.57e-02   204.5052   205.1513   205.7684   206.1070   206.1819   206.3240   
      6    0      42    1.00e-02   204.0470   204.5915   205.5068   205.8989   205.9889   206.2535   
      7    0      48    1.61e-02   203.7096   204.4601   205.4224   205.8364   205.9336   206.2251   
      8    0      54    9.32e-03   203.0944   204.3862   205.3414   205.7107   205.8931   206.1501   
      9    0      60    7.36e-03   202.8175   204.3603   205.2076   205.5957   205.8787   206.0970   
      10   0      66    2.87e-03   202.7788   204.3522   205.0730   205.5706   205.8673   206.0658   
      11   0      72    3.68e-03   202.7720   204.3507   204.9963   205.5620   205.8639   205.9638   
      12   0      78    4.45e-03   202.7686   204.3504   204.8662   205.5579   205.7864   205.8630   
      13   0      84    3.59e-03   202.7674   204.3500   204.7116   205.5541   205.6312   205.8622   
Found complex roots...
      14   2      90    7.52e-04   202.7672*  204.3501*  204.6570   205.5511   205.5691   205.8621   
      15   2      94    7.89e-04   202.7672*  204.3501*  204.6319   205.5383   205.5533   205.8619   
      16   3      98    4.80e-04   202.7672*  204.3501*  204.6072   205.5127   205.5520   205.8617*  
      17   3      101   2.09e-04   202.7672*  204.3500*  204.6014   205.4952   205.5516   205.8617*  
      18   4      104   5.76e-05   202.7672*  204.3500*  204.5977   205.4887   205.5514*  205.8617*  
      19   4      106   3.50e-05   202.7672*  204.3500*  204.5966   205.4869   205.5514*  205.8617*  
      20   4      108   1.97e-05   202.7672*  204.3500*  204.5965   205.4856   205.5514*  205.8617*  
      21   5      110   9.37e-06   202.7672*  204.3500*  204.5963*  205.4848   205.5514*  205.8617*  
      22   5      111   4.14e-06   202.7672*  204.3500*  204.5963*  205.4843   205.5514*  205.8617*  
      23   6      112   2.91e-06   202.7672*  204.3500*  204.5961*  205.4842*  205.5514*  205.8617*  

     Davidson procedure converged

 EOMEE transition 1/B2
 Total energy = -683.23735799 a.u.  Excitation energy = 202.7672 eV.
 R0^2 = 0.0000  R1^2 = 0.8874  R2_CCVV^2 = 0.0038  R2_COVV^2 = 0.0544  Res^2 = 1.58e-06
 Conv-d = yes

 Amplitude    Transitions between orbitals
  0.2858       1 (B2) A                  ->    29 (A1) A                  
  0.2858       1 (B2) B                  ->    29 (A1) B                  
  0.2725       1 (B2) A                  ->    28 (A1) A                  
  0.2725       1 (B2) B                  ->    28 (A1) B                  
 -0.2537       1 (B2) A                  ->    32 (A1) A                  
 -0.2537       1 (B2) B                  ->    32 (A1) B                  
  0.2402       1 (B2) A                  ->    37 (A1) A                  
  0.2402       1 (B2) B                  ->    37 (A1) B                  
  0.1942       1 (B2) A                  ->    35 (A1) A                  
  0.1942       1 (B2) B                  ->    35 (A1) B                  
 -0.1431       1 (B2) A                  ->    25 (A1) A                  
 -0.1431       1 (B2) B                  ->    25 (A1) B                  
  0.1291       1 (B2) A                  ->    27 (A1) A                  
  0.1291       1 (B2) B                  ->    27 (A1) B                  
 -0.1214       1 (B2) A                  ->    38 (A1) A                  
 -0.1214       1 (B2) B                  ->    38 (A1) B                  
 -0.1151       1 (B2) A                  ->    36 (A1) A                  
 -0.1151       1 (B2) B                  ->    36 (A1) B                  
 -0.1022       1 (B2) A                  ->    30 (A1) A                  
 -0.1022       1 (B2) B                  ->    30 (A1) B                  

              Summary of significant orbitals:

               Number  Type             Irrep      Energy
               11      Occ  Alpha       1 (B2)     -8.0311
               11      Occ  Beta        1 (B2)     -8.0311
               52      Vir  Alpha      25 (A1)      0.0912
               58      Vir  Alpha      27 (A1)      0.1260
               60      Vir  Alpha      28 (A1)      0.1690
               62      Vir  Alpha      29 (A1)      0.1761
               65      Vir  Alpha      30 (A1)      0.1918
               69      Vir  Alpha      32 (A1)      0.2216
               79      Vir  Alpha      35 (A1)      0.2644
               80      Vir  Alpha      36 (A1)      0.2796
               83      Vir  Alpha      37 (A1)      0.3026
               84      Vir  Alpha      38 (A1)      0.3136
               52      Vir  Beta       25 (A1)      0.0912
               58      Vir  Beta       27 (A1)      0.1260
               60      Vir  Beta       28 (A1)      0.1690
               62      Vir  Beta       29 (A1)      0.1761
               65      Vir  Beta       30 (A1)      0.1918
               69      Vir  Beta       32 (A1)      0.2216
               79      Vir  Beta       35 (A1)      0.2644
               80      Vir  Beta       36 (A1)      0.2796
               83      Vir  Beta       37 (A1)      0.3026
               84      Vir  Beta       38 (A1)      0.3136


 EOMEE transition 2/B2
 Total energy = -683.17918873 a.u.  Excitation energy = 204.3500 eV.
 R0^2 = 0.0000  R1^2 = 0.8697  R2_CCVV^2 = 0.0037  R2_COVV^2 = 0.0633  Res^2 = 5.28e-07
 Conv-d = yes

 Amplitude    Transitions between orbitals
  0.3766       1 (B2) A                  ->    23 (A1) A                  
  0.3766       1 (B2) B                  ->    23 (A1) B                  
  0.3297       1 (B2) A                  ->    17 (A1) A                  
  0.3297       1 (B2) B                  ->    17 (A1) B                  
 -0.2455       1 (B2) A                  ->    16 (A1) A                  
 -0.2455       1 (B2) B                  ->    16 (A1) B                  
  0.1571       1 (B2) A                  ->    30 (A1) A                  
  0.1571       1 (B2) B                  ->    30 (A1) B                  
 -0.1416       1 (B2) A                  ->    22 (A1) A                  
 -0.1416       1 (B2) B                  ->    22 (A1) B                  
  0.1360       1 (B2) A                  ->    32 (A1) A                  
  0.1360       1 (B2) B                  ->    32 (A1) B                  
  0.1129       1 (B2) A                  ->    24 (A1) A                  
  0.1129       1 (B2) B                  ->    24 (A1) B                  
  0.1103       1 (B2) A                  ->    29 (A1) A                  
  0.1103       1 (B2) B                  ->    29 (A1) B                  

              Summary of significant orbitals:

               Number  Type             Irrep      Energy
               11      Occ  Alpha       1 (B2)     -8.0311
               11      Occ  Beta        1 (B2)     -8.0311
               30      Vir  Alpha      16 (A1)      0.0143
               32      Vir  Alpha      17 (A1)      0.0212
               46      Vir  Alpha      22 (A1)      0.0682
               49      Vir  Alpha      23 (A1)      0.0734
               51      Vir  Alpha      24 (A1)      0.0779
               62      Vir  Alpha      29 (A1)      0.1761
               65      Vir  Alpha      30 (A1)      0.1918
               69      Vir  Alpha      32 (A1)      0.2216
               30      Vir  Beta       16 (A1)      0.0143
               32      Vir  Beta       17 (A1)      0.0212
               46      Vir  Beta       22 (A1)      0.0682
               49      Vir  Beta       23 (A1)      0.0734
               51      Vir  Beta       24 (A1)      0.0779
               62      Vir  Beta       29 (A1)      0.1761
               65      Vir  Beta       30 (A1)      0.1918
               69      Vir  Beta       32 (A1)      0.2216


 EOMEE transition 3/B2
 Total energy = -683.17014485 a.u.  Excitation energy = 204.5961 eV.
 R0^2 = 0.0000  R1^2 = 0.8491  R2_CCVV^2 = 0.0036  R2_COVV^2 = 0.0737  Res^2 = 8.65e-07
 Conv-d = yes

 Amplitude    Transitions between orbitals
 -0.5872       7 (A1) A                  ->    10 (B2) A                  
 -0.5872       7 (A1) B                  ->    10 (B2) B                  
  0.1538       7 (A1) A                  ->    6 (B2) A                   
  0.1538       7 (A1) B                  ->    6 (B2) B                   
 -0.1114       7 (A1) A                  ->    13 (B2) A                  
 -0.1114       7 (A1) B                  ->    13 (B2) B                  
  0.1100       7 (A1) A                  ->    5 (B2) A                   
  0.1100       7 (A1) B                  ->    5 (B2) B                   
[...]
 Oscillator strength (a.u.): 0.000429
 Norm of one-particle transition density matrix:
   A->B: 0.914105;   B->A: 0.909700
   ||gamma^AB||*||gamma^BA||: 0.831562

 ------------------------------------------------------------------------------
 State A: ccsd: 0/A1
 State B: cvs_eomee_ccsd/rhfref/singlets: 3/A1
 Transition dipole moment (a.u.):
   A->B: 0.027297 (X 0.000000, Y 0.000000, Z 0.027297)
   B->A: 0.028113 (X 0.000000, Y 0.000000, Z 0.028113)
 Oscillator strength (a.u.): 0.003846
 Norm of one-particle transition density matrix:
   A->B: 0.910604;   B->A: 0.908232
   ||gamma^AB||*||gamma^BA||: 0.827040

 ------------------------------------------------------------------------------
 State A: ccsd: 0/A1
 State B: cvs_eomee_ccsd/rhfref/singlets: 4/A1
 Transition dipole moment (a.u.):
   A->B: 0.001962 (X 0.000000, Y 0.000000, Z -0.001962)
   B->A: 0.002152 (X 0.000000, Y 0.000000, Z -0.002152)
 Oscillator strength (a.u.): 0.000021
 Norm of one-particle transition density matrix:
   A->B: 0.929002;   B->A: 0.908088
   ||gamma^AB||*||gamma^BA||: 0.843615

 ------------------------------------------------------------------------------
 State A: ccsd: 0/A1
 State B: cvs_eomee_ccsd/rhfref/singlets: 5/A1
 Transition dipole moment (a.u.):
   A->B: 0.001876 (X 0.000000, Y 0.000000, Z 0.001876)
   B->A: 0.001817 (X 0.000000, Y 0.000000, Z 0.001817)
 Oscillator strength (a.u.): 0.000017
 Norm of one-particle transition density matrix:
   A->B: 0.927445;   B->A: 0.907741
   ||gamma^AB||*||gamma^BA||: 0.841880

 ------------------------------------------------------------------------------
 State A: ccsd: 0/A1
 State B: cvs_eomee_ccsd/rhfref/singlets: 6/A1
 Transition dipole moment (a.u.):
   A->B: 0.004831 (X 0.000000, Y 0.000000, Z -0.004831)
   B->A: 0.004673 (X 0.000000, Y 0.000000, Z -0.004673)
 Oscillator strength (a.u.): 0.000114
 Norm of one-particle transition density matrix:
   A->B: 0.926717;   B->A: 0.904729
   ||gamma^AB||*||gamma^BA||: 0.838427

 ------------------------------------------------------------------------------
 State A: ccsd: 0/A1
 State B: cvs_eomee_ccsd/rhfref/singlets: 1/B1
 Transition dipole moment (a.u.):
   A->B: 0.041852 (X -0.041852, Y 0.000000, Z 0.000000)
   B->A: 0.041943 (X -0.041943, Y 0.000000, Z 0.000000)
 Oscillator strength (a.u.): 0.008720
 Norm of one-particle transition density matrix:
   A->B: 0.925033;   B->A: 0.927489
   ||gamma^AB||*||gamma^BA||: 0.857957

 ------------------------------------------------------------------------------
 State A: ccsd: 0/A1
 State B: cvs_eomee_ccsd/rhfref/singlets: 2/B1
 Transition dipole moment (a.u.):
   A->B: 0.012784 (X -0.012784, Y 0.000000, Z 0.000000)
   B->A: 0.012525 (X -0.012525, Y 0.000000, Z 0.000000)
 Oscillator strength (a.u.): 0.000802
 Norm of one-particle transition density matrix:
   A->B: 0.931611;   B->A: 0.912158
   ||gamma^AB||*||gamma^BA||: 0.849777

 ------------------------------------------------------------------------------
 State A: ccsd: 0/A1
 State B: cvs_eomee_ccsd/rhfref/singlets: 3/B1
 Transition dipole moment (a.u.):
   A->B: 0.003728 (X -0.003728, Y 0.000000, Z 0.000000)
   B->A: 0.003721 (X -0.003721, Y 0.000000, Z 0.000000)
 Oscillator strength (a.u.): 0.000070
 Norm of one-particle transition density matrix:
   A->B: 0.892310;   B->A: 0.892859
   ||gamma^AB||*||gamma^BA||: 0.796707

 ------------------------------------------------------------------------------
 State A: ccsd: 0/A1
 State B: cvs_eomee_ccsd/rhfref/singlets: 4/B1
 Transition dipole moment (a.u.):
   A->B: 0.003063 (X 0.003063, Y 0.000000, Z 0.000000)
   B->A: 0.003085 (X 0.003085, Y 0.000000, Z 0.000000)
 Oscillator strength (a.u.): 0.000048
 Norm of one-particle transition density matrix:
   A->B: 0.928716;   B->A: 0.907537
   ||gamma^AB||*||gamma^BA||: 0.842844

 ------------------------------------------------------------------------------
 State A: ccsd: 0/A1
 State B: cvs_eomee_ccsd/rhfref/singlets: 5/B1
 Transition dipole moment (a.u.):
   A->B: 0.003981 (X -0.003981, Y 0.000000, Z 0.000000)
   B->A: 0.003978 (X -0.003978, Y 0.000000, Z 0.000000)
 Oscillator strength (a.u.): 0.000080
 Norm of one-particle transition density matrix:
   A->B: 0.927681;   B->A: 0.905651
   ||gamma^AB||*||gamma^BA||: 0.840155

 ------------------------------------------------------------------------------
 State A: ccsd: 0/A1
 State B: cvs_eomee_ccsd/rhfref/singlets: 6/B1
 Transition dipole moment (a.u.):
   A->B: 0.005135 (X -0.005135, Y 0.000000, Z 0.000000)
   B->A: 0.005012 (X -0.005012, Y 0.000000, Z 0.000000)
 Oscillator strength (a.u.): 0.000130
 Norm of one-particle transition density matrix:
   A->B: 0.927805;   B->A: 0.905572
   ||gamma^AB||*||gamma^BA||: 0.840194

 ------------------------------------------------------------------------------
 State A: ccsd: 0/A1
 State B: cvs_eomee_ccsd/rhfref/singlets: 1/B2
 Transition dipole moment (a.u.):
   A->B: 0.039941 (X 0.000000, Y -0.039941, Z 0.000000)
   B->A: 0.040007 (X 0.000000, Y -0.040007, Z 0.000000)
 Oscillator strength (a.u.): 0.007938
 Norm of one-particle transition density matrix:
   A->B: 0.924946;   B->A: 0.927407
   ||gamma^AB||*||gamma^BA||: 0.857801

 ------------------------------------------------------------------------------
 State A: ccsd: 0/A1
 State B: cvs_eomee_ccsd/rhfref/singlets: 2/B2
 Transition dipole moment (a.u.):
   A->B: 0.011936 (X 0.000000, Y -0.011936, Z 0.000000)
   B->A: 0.011686 (X 0.000000, Y -0.011686, Z 0.000000)
 Oscillator strength (a.u.): 0.000698
 Norm of one-particle transition density matrix:
   A->B: 0.931460;   B->A: 0.912014
   ||gamma^AB||*||gamma^BA||: 0.849504

 ------------------------------------------------------------------------------
 State A: ccsd: 0/A1
 State B: cvs_eomee_ccsd/rhfref/singlets: 3/B2
 Transition dipole moment (a.u.):
   A->B: 0.014287 (X 0.000000, Y 0.014287, Z 0.000000)
   B->A: 0.014362 (X 0.000000, Y 0.014362, Z 0.000000)
 Oscillator strength (a.u.): 0.001029
 Norm of one-particle transition density matrix:
   A->B: 0.894770;   B->A: 0.898410
   ||gamma^AB||*||gamma^BA||: 0.803870

 ------------------------------------------------------------------------------
 State A: ccsd: 0/A1
 State B: cvs_eomee_ccsd/rhfref/singlets: 4/B2
 Transition dipole moment (a.u.):
   A->B: 0.000553 (X 0.000000, Y -0.000553, Z 0.000000)
   B->A: 0.000767 (X 0.000000, Y -0.000767, Z 0.000000)
 Oscillator strength (a.u.): 0.000002
 Norm of one-particle transition density matrix:
   A->B: 0.928648;   B->A: 0.908536
   ||gamma^AB||*||gamma^BA||: 0.843710

 ------------------------------------------------------------------------------
 State A: ccsd: 0/A1
 State B: cvs_eomee_ccsd/rhfref/singlets: 5/B2
 Transition dipole moment (a.u.):
   A->B: 0.000681 (X 0.000000, Y -0.000681, Z 0.000000)
   B->A: 0.000774 (X 0.000000, Y -0.000774, Z 0.000000)
 Oscillator strength (a.u.): 0.000003
 Norm of one-particle transition density matrix:
   A->B: 0.927543;   B->A: 0.905545
   ||gamma^AB||*||gamma^BA||: 0.839932

 ------------------------------------------------------------------------------
 State A: ccsd: 0/A1
 State B: cvs_eomee_ccsd/rhfref/singlets: 6/B2
 Transition dipole moment (a.u.):
   A->B: 0.000397 (X 0.000000, Y 0.000397, Z 0.000000)
   B->A: 0.000440 (X 0.000000, Y 0.000440, Z 0.000000)
 Oscillator strength (a.u.): 0.000001
 Norm of one-particle transition density matrix:
   A->B: 0.927616;   B->A: 0.905392
   ||gamma^AB||*||gamma^BA||: 0.839857


 All requested transition properties have been computed

 Transition Properties:   CPU 128.87 s  wall 28.84 s

 Total ccman2 time:   CPU 57655.59 s  wall 8755.60 s


 --------------------------------------------------------------
             Orbital Energies (a.u.) and Symmetries
 --------------------------------------------------------------

 Alpha MOs, Restricted
 -- Occupied --                  
-104.84  -11.31  -11.25  -11.25  -11.25  -11.25  -11.25  -10.57
  1 A1    2 A1    3 A1    1 B1    4 A1    2 B1    5 A1    6 A1                 
 -8.034  -8.031  -8.031  -1.196  -1.124  -1.036  -1.000  -0.850
  7 A1    3 B1    1 B2    8 A1    9 A1    4 B1   10 A1    5 B1                 
 -0.823  -0.715  -0.651  -0.651  -0.607  -0.593  -0.547  -0.520
 11 A1   12 A1    6 B1   13 A1    7 B1   14 A1    2 B2    8 B1                 
 -0.515  -0.471  -0.456  -0.354  -0.338
 15 A1    3 B2    9 B1    1 A2    4 B2                                         
 -- Virtual --                   
  0.014   0.020   0.021   0.032   0.032   0.033   0.043   0.044
 16 A1   10 B1   17 A1    5 B2   18 A1   11 B1    2 A2    6 B2                 
  0.045   0.048   0.054   0.055   0.056   0.063   0.063   0.065
 19 A1   20 A1   12 B1    3 A2    7 B2   21 A1    8 B2   13 B1                 
  0.068   0.069   0.070   0.073   0.074   0.078   0.091   0.096
 22 A1    9 B2   14 B1   23 A1   15 B1   24 A1   25 A1   16 B1                 
  0.100   0.102   0.104   0.106   0.126   0.163   0.169   0.172
 26 A1    4 A2   10 B2   17 B1   27 A1   11 B2   28 A1   18 B1                 
  0.176   0.180   0.181   0.192   0.211   0.213   0.214   0.222
 29 A1    5 A2   12 B2   30 A1   19 B1   31 A1   13 B2   32 A1                 
  0.222   0.229   0.232   0.235   0.238   0.243   0.244   0.247
 20 B1   14 B2    6 A2   21 B1   33 A1   15 B2   34 A1   22 B1                 
  0.252   0.264   0.280   0.291   0.295   0.303   0.314   0.330
 23 B1   35 A1   36 A1   24 B1   25 B1   37 A1   38 A1   26 B1                 
  0.357   0.366   0.378   0.414   0.418   0.432   0.441   0.491
 16 B2   39 A1   40 A1   41 A1   27 B1   42 A1   28 B1   43 A1                 
  0.500   0.509   0.509   0.620   0.631   0.643   0.652   0.662
 29 B1   44 A1   30 B1   45 A1   31 B1   32 B1   17 B2   46 A1                 
  0.720   0.730   0.742   0.743   0.745   0.772   0.782   0.794
 47 A1   33 B1   48 A1   18 B2   34 B1    7 A2   19 B2   35 B1                 
  0.821   0.822   0.823   0.881   0.884   0.898   0.934   0.936
 49 A1    8 A2   20 B2   50 A1   21 B2   51 A1   52 A1   36 B1                 
  0.955   0.973   1.018   1.024   1.039   1.060   1.067   1.082
 37 B1   53 A1   38 B1   54 A1   55 A1   39 B1   22 B2   56 A1                 
  1.095   1.100   1.133   1.139   1.173   1.192   1.221   1.225
 57 A1   40 B1   41 B1    9 A2   58 A1   42 B1   59 A1   23 B2                 
  1.235   1.273   1.309   1.352   1.376   1.443   1.467   1.475
 10 A2   60 A1   11 A2   24 B2   12 A2   61 A1   43 B1   62 A1                 
  1.581   1.663   1.728   1.776   1.787   1.824   1.831   1.844
 25 B2   63 A1   44 B1   64 A1   45 B1   26 B2   13 A2   65 A1                 
  1.892   1.908   1.909   1.963   1.999   2.008   2.042   2.103
 27 B2   66 A1   46 B1   67 A1   47 B1   28 B2   14 A2   48 B1                 
  2.168   2.218   2.220   2.221   2.236   2.243   2.287   2.323
 68 A1   49 B1   15 A2   29 B2   50 B1   69 A1   30 B2   70 A1                 
  2.352   2.368   2.392   2.579   2.611   2.647   2.684   2.748
 51 B1   16 A2   71 A1   31 B2   52 B1   17 A2   32 B2   72 A1                 
  2.777   2.798   2.810   2.867   2.914   2.935   2.981   2.997
 53 B1   73 A1   54 B1   55 B1   74 A1   75 A1   76 A1   77 A1                 
  3.009   3.026   3.038   3.043   3.066   3.191   3.194   3.205
 56 B1   78 A1   79 A1   57 B1   33 B2   34 B2   18 A2   58 B1                 
  3.210   3.283   3.288   3.321   3.473   3.567   3.631   3.757
 80 A1   35 B2   19 A2   59 B1   36 B2   60 B1   81 A1   61 B1                 
  3.782   3.902   3.919   4.022   4.189   4.384   4.442   4.510
 82 A1   62 B1   83 A1   84 A1   85 A1   63 B1   86 A1   87 A1                 
  4.516   5.123   5.263   5.442   5.447   5.754   5.779   6.187
 64 B1   88 A1   65 B1   89 A1   66 B1   90 A1   67 B1   91 A1                 
 10.544  20.635  20.695  20.708  20.824  20.852  21.124  26.795
 92 A1   93 A1   94 A1   68 B1   95 A1   69 B1   96 A1   37 B2                 
 27.056  27.522  80.200  80.266  80.282  80.380  80.405  80.613
 70 B1   97 A1   98 A1   99 A1   71 B1  100 A1   72 B1  101 A1                 
219.412 322.039 322.101 322.118 322.201 322.223 322.3901431.607
102 A1  103 A1  104 A1   73 B1  105 A1   74 B1  106 A1  107 A1                 
*******1431.6801431.7491431.7681431.9088749.8448749.8938749.909
108 A1   75 B1  109 A1   76 B1  110 A1  111 A1  112 A1   77 B1                 
*******8749.9818750.093
113 A1   78 B1  114 A1                                                         

 Beta MOs, Restricted
 -- Occupied --                  
-104.84  -11.31  -11.25  -11.25  -11.25  -11.25  -11.25  -10.57
  1 A1    2 A1    3 A1    1 B1    4 A1    2 B1    5 A1    6 A1                 
 -8.034  -8.031  -8.031  -1.196  -1.124  -1.036  -1.000  -0.850
  7 A1    3 B1    1 B2    8 A1    9 A1    4 B1   10 A1    5 B1                 
 -0.823  -0.715  -0.651  -0.651  -0.607  -0.593  -0.547  -0.520
 11 A1   12 A1    6 B1   13 A1    7 B1   14 A1    2 B2    8 B1                 
 -0.515  -0.471  -0.456  -0.354  -0.338
 15 A1    3 B2    9 B1    1 A2    4 B2                                         
 -- Virtual --                   
  0.014   0.020   0.021   0.032   0.032   0.033   0.043   0.044
 16 A1   10 B1   17 A1    5 B2   18 A1   11 B1    2 A2    6 B2                 
  0.045   0.048   0.054   0.055   0.056   0.063   0.063   0.065
 19 A1   20 A1   12 B1    3 A2    7 B2   21 A1    8 B2   13 B1                 
  0.068   0.069   0.070   0.073   0.074   0.078   0.091   0.096
 22 A1    9 B2   14 B1   23 A1   15 B1   24 A1   25 A1   16 B1                 
  0.100   0.102   0.104   0.106   0.126   0.163   0.169   0.172
 26 A1    4 A2   10 B2   17 B1   27 A1   11 B2   28 A1   18 B1                 
  0.176   0.180   0.181   0.192   0.211   0.213   0.214   0.222
 29 A1    5 A2   12 B2   30 A1   19 B1   31 A1   13 B2   32 A1                 
  0.222   0.229   0.232   0.235   0.238   0.243   0.244   0.247
 20 B1   14 B2    6 A2   21 B1   33 A1   15 B2   34 A1   22 B1                 
  0.252   0.264   0.280   0.291   0.295   0.303   0.314   0.330
 23 B1   35 A1   36 A1   24 B1   25 B1   37 A1   38 A1   26 B1                 
  0.357   0.366   0.378   0.414   0.418   0.432   0.441   0.491
 16 B2   39 A1   40 A1   41 A1   27 B1   42 A1   28 B1   43 A1                 
  0.500   0.509   0.509   0.620   0.631   0.643   0.652   0.662
 29 B1   44 A1   30 B1   45 A1   31 B1   32 B1   17 B2   46 A1                 
  0.720   0.730   0.742   0.743   0.745   0.772   0.782   0.794
 47 A1   33 B1   48 A1   18 B2   34 B1    7 A2   19 B2   35 B1                 
  0.821   0.822   0.823   0.881   0.884   0.898   0.934   0.936
 49 A1    8 A2   20 B2   50 A1   21 B2   51 A1   52 A1   36 B1                 
  0.955   0.973   1.018   1.024   1.039   1.060   1.067   1.082
 37 B1   53 A1   38 B1   54 A1   55 A1   39 B1   22 B2   56 A1                 
  1.095   1.100   1.133   1.139   1.173   1.192   1.221   1.225
 57 A1   40 B1   41 B1    9 A2   58 A1   42 B1   59 A1   23 B2                 
  1.235   1.273   1.309   1.352   1.376   1.443   1.467   1.475
 10 A2   60 A1   11 A2   24 B2   12 A2   61 A1   43 B1   62 A1                 
  1.581   1.663   1.728   1.776   1.787   1.824   1.831   1.844
 25 B2   63 A1   44 B1   64 A1   45 B1   26 B2   13 A2   65 A1                 
  1.892   1.908   1.909   1.963   1.999   2.008   2.042   2.103
 27 B2   66 A1   46 B1   67 A1   47 B1   28 B2   14 A2   48 B1                 
  2.168   2.218   2.220   2.221   2.236   2.243   2.287   2.323
 68 A1   49 B1   15 A2   29 B2   50 B1   69 A1   30 B2   70 A1                 
  2.352   2.368   2.392   2.579   2.611   2.647   2.684   2.748
 51 B1   16 A2   71 A1   31 B2   52 B1   17 A2   32 B2   72 A1                 
  2.777   2.798   2.810   2.867   2.914   2.935   2.981   2.997
 53 B1   73 A1   54 B1   55 B1   74 A1   75 A1   76 A1   77 A1                 
  3.009   3.026   3.038   3.043   3.066   3.191   3.194   3.205
 56 B1   78 A1   79 A1   57 B1   33 B2   34 B2   18 A2   58 B1                 
  3.210   3.283   3.288   3.321   3.473   3.567   3.631   3.757
 80 A1   35 B2   19 A2   59 B1   36 B2   60 B1   81 A1   61 B1                 
  3.782   3.902   3.919   4.022   4.189   4.384   4.442   4.510
 82 A1   62 B1   83 A1   84 A1   85 A1   63 B1   86 A1   87 A1                 
  4.516   5.123   5.263   5.442   5.447   5.754   5.779   6.187
 64 B1   88 A1   65 B1   89 A1   66 B1   90 A1   67 B1   91 A1                 
 10.544  20.635  20.695  20.708  20.824  20.852  21.124  26.795
 92 A1   93 A1   94 A1   68 B1   95 A1   69 B1   96 A1   37 B2                 
 27.056  27.522  80.200  80.266  80.282  80.380  80.405  80.613
 70 B1   97 A1   98 A1   99 A1   71 B1  100 A1   72 B1  101 A1                 
219.412 322.039 322.101 322.118 322.201 322.223 322.3901431.607
102 A1  103 A1  104 A1   73 B1  105 A1   74 B1  106 A1  107 A1                 
*******1431.6801431.7491431.7681431.9088749.8448749.8938749.909
108 A1   75 B1  109 A1   76 B1  110 A1  111 A1  112 A1   77 B1                 
*******8749.9818750.093
113 A1   78 B1  114 A1                                                         
 --------------------------------------------------------------

          Ground-State Mulliken Net Atomic Charges

     Atom                 Charge (a.u.)
  ----------------------------------------
      1 H                     0.191423
      2 C                    -0.467623
      3 C                    -0.325326
      4 H                     0.223695
      5 C                    -0.337041
      6 H                     0.184041
      7 C                    -0.325326
      8 H                     0.223695
      9 C                    -0.467623
     10 H                     0.191423
     11 C                     0.389120
     12 Cl                    0.519542
  ----------------------------------------
  Sum of atomic charges =     0.000000

 -----------------------------------------------------------------
                    Cartesian Multipole Moments
 -----------------------------------------------------------------
    Charge (ESU x 10^10)
                 0.0000
    Dipole Moment (Debye)
         X      -0.0000      Y       0.0000      Z      -1.9696
       Tot       1.9696
    Quadrupole Moments (Debye-Ang)
        XX     -42.4455     XY       0.0000     YY     -52.7498
        XZ      -0.0000     YZ       0.0000     ZZ     -46.7168
    Octopole Moments (Debye-Ang^2)
       XXX      -0.0000    XXY      -0.0000    XYY       0.0000
       YYY       0.0000    XXZ      -1.4039    XYZ       0.0000
       YYZ       7.5122    XZZ      -0.0000    YZZ       0.0000
       ZZZ      -6.2786
    Hexadecapole Moments (Debye-Ang^3)
      XXXX    -275.2649   XXXY      -0.0000   XXYY     -69.5895
      XYYY       0.0000   YYYY     -64.7746   XXXZ      -0.0000
      XXYZ       0.0000   XYYZ      -0.0000   YYYZ      -0.0000
      XXZZ    -181.1018   XYZZ       0.0000   YYZZ    -165.9787
      XZZZ      -0.0000   YZZZ       0.0000   ZZZZ    -787.0201
 -----------------------------------------------------------------
Archival summary:
1\1\node20\SP\ProcedureUnspecified\BasisUnspecified\l165\krylov\SunOct1405:17:492018SunOct1405:17:492018\0\\#,ProcedureUnspecified,BasisUnspecified,\\0,1\Cl\C,1,1.73093\C,2,1.39121,1,119.398\H,3,1.08039,2,119.798,1,0,0\C,2,1.39121,1,119.398,3,-180,0\H,5,1.08039,2,119.798,1,0,0\C,3,1.39191,2,119.079,1,180,0\H,7,1.08135,3,119.367,2,-180,0\C,5,1.39191,2,119.079,1,-180,0\H,9,1.08135,5,119.367,2,180,0\C,7,1.39245,3,120.451,2,0,0\H,11,1.08085,7,120.132,3,-180,0\\HF=-689.680939\\@

 Total job time:  8794.28s(wall), 57787.63s(cpu) 
 Sun Oct 14 05:17:49 2018

        *************************************************************
        *                                                           *
        *  Thank you very much for using Q-Chem.  Have a nice day.  *
        *                                                           *
        *************************************************************


