Q-Chem Developer Version!
                  Welcome to Q-Chem
     A Quantum Leap Into The Future Of Chemistry


 Q-Chem 5.1, Q-Chem, Inc., Pleasanton, CA (2018)

 Yihan Shao,  Zhengting Gan,  E. Epifanovsky,  A. T. B. Gilbert,  M. Wormit,  
 J. Kussmann,  A. W. Lange,  A. Behn,  Jia Deng,  Xintian Feng,  D. Ghosh,  
 M. Goldey,  P. R. Horn,  L. D. Jacobson,  I. Kaliman,  T. Kus,  A. Landau,  
 Jie Liu,  E. I. Proynov,  R. M. Richard,  R. P. Steele,  E. J. Sundstrom,  
 H. L. Woodcock III,  P. M. Zimmerman,  D. Zuev,  B. Albrecht,  E. Alguire,  
 S. A. Baeppler,  D. Barton,  Z. Benda,  Y. A. Bernard,  E. J. Berquist,  
 K. B. Bravaya,  H. Burton,  D. Casanova,  Chun-Min Chang,  Yunqing Chen,  
 A. Chien,  K. D. Closser,  M. P. Coons,  S. Coriani,  S. Dasgupta,  
 A. L. Dempwolff,  M. Diedenhofen,  Hainam Do,  R. G. Edgar,  Po-Tung Fang,  
 S. Faraji,  S. Fatehi,  Qingguo Feng,  K. D. Fenk,  J. Fosso-Tande,  
 Qinghui Ge,  A. Ghysels,  G. Gidofalvi,  J. Gomes,  J. Gonthier,  A. Gunina,  
 D. Hait,  M. W. D. Hanson-Heine,  P. H. P. Harbach,  A. W. Hauser,  
 J. E. Herr,  E. G. Hohenstein,  Z. C. Holden,  Kerwin Hui,  B. C. Huynh,  
 T.-C. Jagau,  Hyunjun Ji,  B. Kaduk,  K. Khistyaev,  Jaehoon Kim,  
 P. Klunzinger,  K. Koh,  D. Kosenkov,  L. Koulias,  T. Kowalczyk,  
 C. M. Krauter,  A. Kunitsa,  Ka Un Lao,  A. Laurent,  K. V. Lawler,  
 Joonho Lee,  D. Lefrancois,  S. Lehtola,  D. S. Levine,  Yi-Pei Li,  
 You-Sheng Lin,  Fenglai Liu,  E. Livshits,  A. Luenser,  P. Manohar,  
 E. Mansoor,  S. F. Manzer,  Shan-Ping Mao,  Yuezhi Mao,  N. Mardirossian,  
 A. V. Marenich,  T. Markovich,  L. A. Martinez-Martinez,  S. A. Maurer,  
 N. J. Mayhall,  S. C. McKenzie,  J.-M. Mewes,  A. F. Morrison,  
 J. W. Mullinax,  K. Nanda,  T. S. Nguyen-Beck,  R. Olivares-Amaya,  
 J. A. Parkhill,  T. M. Perrine,  F. Plasser,  P. Pokhilko,  S. Prager,  
 A. Prociuk,  E. Ramos,  D. R. Rehn,  F. Rob,  M. Schneider,  N. Sergueev,  
 S. M. Sharada,  S. Sharma,  D. W. Small,  T. Stauch,  T. Stein,  
 Yu-Chuan Su,  A. J. W. Thom,  A. Tkatchenko,  T. Tsuchimochi,  N. M. Tubman,  
 L. Vogt,  M. L. Vidal,  O. Vydrov,  M. A. Watson,  J. Wenzel,  
 M. de Wergifosse,  T. A. Wesolowski,  A. White,  J. Witte,  A. Yamada,  
 Jun Yang,  K. Yao,  S. Yeganeh,  S. R. Yost,  Zhi-Qiang You,  A. Zech,  
 Igor Ying Zhang,  Xing Zhang,  Yan Zhao,  Ying Zhu,  B. R. Brooks,  
 G. K. L. Chan,  C. J. Cramer,  M. S. Gordon,  W. J. Hehre,  A. Klamt,  
 M. W. Schmidt,  C. D. Sherrill,  D. G. Truhlar,  A. Aspuru-Guzik,  R. Baer,  
 A. T. Bell,  N. A. Besley,  Jeng-Da Chai,  A. E. DePrince, III,  
 R. A. DiStasio Jr.,  A. Dreuw,  B. D. Dunietz,  T. R. Furlani,  
 Chao-Ping Hsu,  Yousung Jung,  Jing Kong,  D. S. Lambrecht,  WanZhen Liang,  
 C. Ochsenfeld,  V. A. Rassolov,  L. V. Slipchenko,  J. E. Subotnik,  
 T. Van Voorhis,  J. M. Herbert,  A. I. Krylov,  P. M. W. Gill,  M. Head-Gordon

 Contributors to earlier versions of Q-Chem not listed above: 
 R. D. Adamson,  B. Austin,  J. Baker,  G. J. O. Beran,  K. Brandhorst,  
 S. T. Brown,  E. F. C. Byrd,  A. K. Chakraborty,  C.-L. Cheng,  
 Siu Hung Chien,  D. M. Chipman,  D. L. Crittenden,  H. Dachsel,  
 R. J. Doerksen,  A. D. Dutoi,  L. Fusti-Molnar,  W. A. Goddard III,  
 A. Golubeva-Zadorozhnaya,  S. R. Gwaltney,  G. Hawkins,  A. Heyden,  
 S. Hirata,  G. Kedziora,  F. J. Keil,  C. Kelley,  Jihan Kim,  R. A. King,  
 R. Z. Khaliullin,  P. P. Korambath,  W. Kurlancheek,  A. M. Lee,  M. S. Lee,  
 S. V. Levchenko,  Ching Yeh Lin,  D. Liotard,  R. C. Lochan,  I. Lotan,  
 P. E. Maslen,  N. Nair,  D. P. O'Neill,  D. Neuhauser,  E. Neuscamman,  
 C. M. Oana,  R. Olson,  B. Peters,  R. Peverati,  P. A. Pieniazek,  
 Y. M. Rhee,  J. Ritchie,  M. A. Rohrdanz,  E. Rosta,  N. J. Russ,  
 H. F. Schaefer III,  N. E. Schultz,  N. Shenvi,  A. C. Simmonett,  A. Sodt,  
 D. Stuck,  K. S. Thanthiriwatte,  V. Vanovschi,  Tao Wang,  A. Warshel,  
 C. F. Williams,  Q. Wu,  X. Xu,  W. Zhang

 Please cite Q-Chem as follows:
 Y. Shao et al., Mol. Phys. 113, 184-215 (2015)
 DOI: 10.1080/00268976.2014.952696

 Q-Chem 5.1.1 for Intel X86 EM64T Linux

 Parts of Q-Chem use Armadillo 8.300.2 (Tropical Shenanigans).
 http://arma.sourceforge.net/

 Q-Chem begins on Mon Oct 15 04:11:59 2018  

node20
Host: 0

     Scratch files written to /scratch/krylov/qchem30928//
Core orbitals will be frozen
Input Ideriv = 0
Curr. Ideriv = -1
Max.  Ideriv = 0

Checking the input file for inconsistencies... 	...done.

--------------------------------------------------------------
User input:
--------------------------------------------------------------
$comment
Optimized Cl-Bz cation, B2 state, XAS of the cation
$end

$molecule
+1 2
H        -2.1651573376    0.0000000000    0.3879499861
C        -1.2470507240    0.0000000000   -0.1801247700
C        -1.2361338652    0.0000000000   -1.5492083889
H        -2.1609781249    0.0000000000   -2.1059158595
C         0.0000000000    0.0000000000   -2.2400161949
H         0.0000000000    0.0000000000   -3.3212297746
C         1.2361338652    0.0000000000   -1.5492083889
H         2.1609781249    0.0000000000   -2.1059158595
C         1.2470507240    0.0000000000   -0.1801247700
H         2.1651573376    0.0000000000    0.3879499861
C         0.0000000000    0.0000000000    0.5119321622
Cl        0.0000000000    0.0000000000    2.1842696329
$end

$rem
   JOB_TYPE  =  SP
   BASIS  =  general
   METHOD  =  EOM-CCSD
   CVS_EE_STATES = [5,0,4,5]   bright transitions only
   CC_MEMORY = 100000
   cc_trans_prop = 1
   EOM_DAVIDSON_MAXVECTORS = 120
   eom_shift = 07277  198 eV
$end

$basis
H    0
S    3    1.000000
   3.38650000E+01    2.54938000E-02 
   5.09479000E+00    1.90373000E-01 
   1.15879000E+00    8.52161000E-01 
S    1    1.000000
   3.25840000E-01    1.00000000E+00 
S    1    1.000000
   1.02741000E-01    1.00000000E+00 
S    1    1.000000
   3.60000000E-02    1.00000000E+00 
P    1    1.000000
   7.50000000E-01    1.00000000E+00 
****
C    0
S    1    1.000000
   4.56324000E+03    1.96665000E-03 
S    1    1.000000
   6.82024000E+02    1.52306000E-02 
S    1    1.000000
   1.54973000E+02    7.61269000E-02 
S    1    1.000000
   4.44553000E+01    2.60801000E-01 
S    1    1.000000
   1.30290000E+01    6.16462000E-01 
S    1    1.000000
   1.82773000E+00    2.21006000E-01 
SP   3    1.000000
   2.09642000E+01    1.14660000E-01   4.02487000E-02 
   4.80331000E+00    9.19999000E-01   2.37594000E-01 
   1.45933000E+00   -3.03068000E-03   8.15854000E-01 
SP   1    1.000000
   4.83456000E-01    1.00000000E+00   1.00000000E+00 
SP   1    1.000000
   1.45585000E-01    1.00000000E+00   1.00000000E+00 
SP   1    1.000000
   4.38000000E-02    1.00000000E+00   1.00000000E+00 
SP   1    1.000000
   1.31927711E-02    1.00000000E+00   1.00000000E+00 
D    1    1.000000
   6.26000000E-01    1.00000000E+00 
****
Cl   0
S    1    1.000000
   1.05819000E+05    7.38000000E-04 
S    1    1.000000
   1.58720000E+04    5.71800000E-03 
S    1    1.000000
   3.61965000E+03    2.94950000E-02 
S    1    1.000000
   1.03080000E+03    1.17286000E-01 
S    1    1.000000
   3.39908000E+02    3.62949000E-01 
S    1    1.000000
   1.24538000E+02    5.84149000E-01 
S    3    1.000000
   1.24538000E+02    1.34177000E-01 
   4.95135000E+01    6.24250000E-01 
   2.08056000E+01    2.91756000E-01 
S    1    1.000000
   6.58346000E+00    1.00000000E+00 
S    1    1.000000
   2.56468000E+00    1.00000000E+00 
S    1    1.000000
   5.59763000E-01    1.00000000E+00 
S    1    1.000000
   1.83273000E-01    1.00000000E+00 
P    1    1.000000
   5.89776000E+02    2.39100000E-03 
P    1    1.000000
   1.39849000E+02    1.85040000E-02 
P    1    1.000000
   4.51413000E+01    8.13770000E-02 
P    1    1.000000
   1.68733000E+01    2.21552000E-01 
P    1    1.000000
   6.74110000E+00    7.72569000E-01 
P    2    1.000000
   6.74110000E+00   -1.57224400E+00 
   2.77152000E+00    9.92389000E-01 
P    1    1.000000
   1.02387000E+00    1.00000000E+00 
P    1    1.000000
   3.81368000E-01    1.00000000E+00 
P    1    1.000000
   1.09437000E-01    1.00000000E+00 
SP   1    1.000000
   4.83000000E-02    1.00000000E+00   1.00000000E+00 
SP   1    1.000000
   1.45481928E-02    1.00000000E+00   1.00000000E+00 
D    1    1.000000
   7.50000000E-01    1.00000000E+00 
****
$end

--------------------------------------------------------------
 ----------------------------------------------------------------
             Standard Nuclear Orientation (Angstroms)
    I     Atom           X                Y                Z
 ----------------------------------------------------------------
    1      H      -2.1651573376     0.0000000000     0.4007961907
    2      C      -1.2470507240     0.0000000000    -0.1672785654
    3      C      -1.2361338652    -0.0000000000    -1.5363621843
    4      H      -2.1609781249    -0.0000000000    -2.0930696549
    5      C       0.0000000000    -0.0000000000    -2.2271699903
    6      H       0.0000000000    -0.0000000000    -3.3083835700
    7      C       1.2361338652    -0.0000000000    -1.5363621843
    8      H       2.1609781249    -0.0000000000    -2.0930696549
    9      C       1.2470507240    -0.0000000000    -0.1672785654
   10      H       2.1651573376    -0.0000000000     0.4007961907
   11      C      -0.0000000000     0.0000000000     0.5247783668
   12      Cl     -0.0000000000     0.0000000000     2.1971158375
 ----------------------------------------------------------------
 Molecular Point Group                 C2v   NOp =  4
 Largest Abelian Subgroup              C2v   NOp =  4
 Nuclear Repulsion Energy =   317.2698949856 hartrees
 There are       29 alpha and       28 beta electrons

 Q-Chem warning in module forms1/BasisType.C, line 1703:

 Setting pure/cartesian flag to 2111 for general basis


 Requested basis set is non-standard
 There are 120 shells and 272 basis functions
MEM_TOTAL is adjusted to CC_MEMORY + MEM_STATIC!
 Total memory of 100192MB is distributed as follows: 
   QALLOC including MEM_STATIC uses 192MB
   MEM_STATIC is set to 192MB
   CCMAN JOB total memory use is  100000MB
 Warning: actual memory use might exceed 100192MB

 Total QAlloc Memory Limit    192 MB
 Mega-Array Size       188 MB
 MEM_STATIC part       192 MB

                       Distance Matrix (Angstroms)
             H (  1)   C (  2)   C (  3)   H (  4)   C (  5)   H (  6)
   C (  2)  1.079643
   C (  3)  2.148410  1.369127
   H (  4)  2.493869  2.131651  1.079472
   C (  5)  3.405013  2.407963  1.416066  2.165135
   H (  6)  4.294871  3.379597  2.160576  2.479277  1.081214
   C (  7)  3.914251  2.835594  2.472268  3.442425  1.416066  2.160576
   H (  8)  4.993477  3.914503  3.442425  4.321956  2.165135  2.479277
   C (  9)  3.459172  2.494101  2.835594  3.914503  2.407963  3.379597
   H ( 10)  4.330315  3.459172  3.914251  4.993477  3.405013  4.294871
   C ( 11)  2.168704  1.426211  2.403399  3.394548  2.751948  3.833162
   Cl( 12)  2.813302  2.673106  3.932796  4.803698  4.424286  5.505499
             C (  7)   H (  8)   C (  9)   H ( 10)   C ( 11)
   H (  8)  1.079472
   C (  9)  1.369127  2.131651
   H ( 10)  2.148410  2.493869  1.079643
   C ( 11)  2.403399  3.394548  1.426211  2.168704
   Cl( 12)  3.932796  4.803698  2.673106  2.813302  1.672337

 A cutoff of  1.0D-14 yielded   5930 shell pairs
 There are     34668 function pairs (     36580 Cartesian)

 -------------------------------------------------------
 OpenMP Integral Computing Module                       
 Release: version 1.0, May 2013, Q-Chem Inc. Pittsburgh 
 -------------------------------------------------------
 Integral Job Info:
 Integral job number is                      11
 Integral operator is                         1
 short-range coefficients                     0
 long-range coefficients              100000000
 Omega coefficients                           0
 if combine SR and LR in K                    0
 Integral screening is                        0
 Integral computing path is                   2
 max size of driver memory is            800000
 size of driver memory is                593474
 size of scratch memory is              1367512
 max col of scratch BK array               1296
 max len of scratch array in speh3          155
 max len of scratch index in speh4           18
 max int batch size is                      520
 min int batch size is                       52
 fixed nKL is                                52
 max L of basis functions is                  2
 order of int derivative is                   0
 number of shells is                        120
 number of basis is                         279
 number of cartesian basis is               279
 number of contracted shell pairs          5930
 number of primitive shell pairs           7835
 maxK2 (contraction) of shell pair            9
 max number of K2 of shell pair               1
 max number of CS2 of shell pair           1682
 max number of PS2 of shell pair           1682
 mem total for path MDJ                  543004
 -------------------------------------------------------
 Smallest overlap matrix eigenvalue = 1.12E-08
 Linear dependence detected in AO basis
 Tighter screening thresholds may be required for diffuse basis sets
 Use S2THRESH > 14 and THRESH = 14 in case of SCF convergence issues
 Number of orthogonalized atomic orbitals = 265
 Maximum deviation from orthogonality = 1.734E-10

 Scale SEOQF with 1.000000e-01/1.000000e-01/1.000000e-01

 Standard Electronic Orientation quadrupole field applied
 Nucleus-field energy     =    -0.0000000154 hartrees
 Guess MOs from core Hamiltonian diagonalization

 -----------------------------------------------------------------------
  General SCF calculation program by
  Eric Jon Sundstrom, Paul Horn, Yuezhi Mao, Dmitri Zuev, Alec White,
  David Stuck, Shaama M.S., Shane Yost, Joonho Lee, David Small,
  Daniel Levine, Susi Lehtola, Hugh Burton, Evgeny Epifanovsky
 -----------------------------------------------------------------------
 Hartree-Fock
 using 8 threads for integral computing
 -------------------------------------------------------
 OpenMP Integral computing Module                
 Release: version 2.0, May 2017, Q-Chem Inc. Pleasanton 
 -------------------------------------------------------
 A unrestricted SCF calculation will be
 performed using DIIS
 SCF converges when DIIS error is below 1.0e-08
 ---------------------------------------
  Cycle       Energy         DIIS error
 ---------------------------------------
    1    -539.9460474529      1.26e-01  
    2    -381.4170311525      4.74e-02  
    3    -436.8300811355      8.83e-02  
    4    -518.2434954717      7.17e-02  
    5    -560.7463389748      5.78e-02  
    6    -620.3122918630      4.38e-02  
    7    -649.6797635452      3.26e-02  
    8    -681.9911593903      1.79e-02  
    9    -686.1798098008      8.62e-03  
   10    -689.1006067265      2.80e-03  
   11    -689.3538190253      7.91e-04  
   12    -689.3808655764      3.44e-04  
   13    -689.3875963780      1.60e-04  
   14    -689.3901789658      8.10e-05  
   15    -689.3911086716      3.75e-05  
   16    -689.3914379029      2.66e-05  
   17    -689.3916740099      2.27e-05  
   18    -689.3918817472      2.18e-05  
   19    -689.3922170379      2.02e-05  
   20    -689.3932456583      1.42e-05  
   21    -689.3935256888      6.65e-06  
   22    -689.3935583558      3.32e-06  
   23    -689.3935620373      2.38e-06  
   24    -689.3935567193      3.21e-06  
   25    -689.3935652438      5.52e-07  
   26    -689.3935654287      2.43e-07  
   27    -689.3935654589      9.54e-08  
   28    -689.3935654594      3.28e-08  
   29    -689.3935654610      2.98e-08  
   30    -689.3935654654      7.08e-09  Convergence criterion met
 ---------------------------------------
 SCF time:   CPU 226.58s  wall 31.00s 
<S^2> =          0.902182737
 SCF   energy in the final basis set =     -689.3935654654
 Total energy in the final basis set =     -689.3935654654


 ------------------------------------------------------------------------------

   CCMAN2: suite of methods based on coupled cluster
           and equation of motion theories.

   Components:
   * libvmm-1.3-trunk
     by Evgeny Epifanovsky, Ilya Kaliman.
   * libtensor-2.5-trunk
     by Evgeny Epifanovsky, Michael Wormit, Dmitry Zuev, Sam Manzer, 
        Ilya Kaliman.
   * libcc-2.5-trunk
     by Evgeny Epifanovsky, Arik Landau, Tomasz Kus, Kirill Khistyaev, 
        Dmitry Zuev, Prashant Manohar, Xintian Feng, Anna Krylov, 
        Matthew Goldey, Alec White, Thomas Jagau, Kaushik Nanda, 
        Anastasia Gunina, Alexander Kunitsa, Joonho Lee.

   CCMAN original authors:
   Anna I. Krylov, C. David Sherrill, Steven R. Gwaltney,
   Edward F. C. Byrd (2000)
   Sergey V. Levchenko, Lyudmila V. Slipchenko, Tao Wang,
   Ana-Maria C. Cristian (2003)
   Piotr A. Pieniazek, C. Melania Oana, Evgeny Epifanovsky (2007)
   Prashant Manohar (2009)

 ------------------------------------------------------------------------------


 Allocating and initializing 100000MB of RAM...
 Calculation will run on 8 cores.


 Alpha MOs, Unrestricted
 -- Occupied --                  
-105.06  -11.58  -11.49  -11.48  -11.48  -11.46  -11.46  -10.79
  1 A1    2 A1    3 A1    1 B1    4 A1    2 B1    5 A1    6 A1                 
 -8.254  -8.253  -8.250  -1.435  -1.348  -1.254  -1.224  -1.061
  1 B2    7 A1    3 B1    8 A1    9 A1    4 B1   10 A1    5 B1                 
 -1.042  -0.925  -0.870  -0.860  -0.820  -0.808  -0.788  -0.731
 11 A1   12 A1    6 B1   13 A1    7 B1   14 A1    2 B2   15 A1                 
 -0.727  -0.690  -0.662  -0.583  -0.567
  8 B1    3 B2    9 B1    4 B2    1 A2                                         
 -- Virtual --                   
 -0.133  -0.086  -0.084  -0.069  -0.069  -0.065  -0.052  -0.050
  5 B2   16 A1    2 A2   10 B1   17 A1    6 B2   18 A1   19 A1                 
 -0.049  -0.045  -0.045  -0.032  -0.027  -0.026  -0.024  -0.023
 11 B1    3 A2    7 B2   20 A1   12 B1   21 A1   22 A1   13 B1                 
 -0.023  -0.022  -0.020  -0.018  -0.010  -0.008  -0.005  -0.004
  8 B2    4 A2    9 B2   23 A1   14 B1   24 A1   15 B1   25 A1                 
 -0.003   0.002   0.003   0.014   0.016   0.027   0.030   0.040
 10 B2   26 A1   16 B1   17 B1   27 A1   11 B2   28 A1   29 A1                 
  0.041   0.047   0.050   0.065   0.073   0.073   0.085   0.090
 12 B2    5 A2   18 B1   30 A1   31 A1   13 B2   19 B1   32 A1                 
  0.092   0.093   0.094   0.098   0.110   0.110   0.113   0.122
 20 B1    6 A2   14 B2   15 B2   21 B1   33 A1   22 B1   34 A1                 
  0.128   0.133   0.149   0.151   0.151   0.161   0.164   0.179
 35 A1   23 B1   36 A1   37 A1   24 B1   16 B2   38 A1   25 B1                 
  0.199   0.210   0.230   0.235   0.237   0.257   0.266   0.315
 26 B1   39 A1   40 A1   27 B1   41 A1   42 A1   28 B1   43 A1                 
  0.330   0.340   0.352   0.446   0.451   0.463   0.473   0.480
 29 B1   44 A1   30 B1   45 A1   31 B1   32 B1   17 B2   46 A1                 
  0.533   0.541   0.544   0.548   0.559   0.574   0.581   0.599
 47 A1   18 B2   33 B1   48 A1   34 B1   19 B2    7 A2   35 B1                 
  0.611   0.613   0.639   0.675   0.689   0.704   0.742   0.743
 49 A1   20 B2    8 A2   50 A1   21 B2   51 A1   36 B1   52 A1                 
  0.770   0.772   0.827   0.828   0.830   0.849   0.867   0.886
 53 A1   37 B1   22 B2   54 A1   38 B1   55 A1   56 A1   39 B1                 
  0.894   0.900   0.914   0.924   0.967   0.990   1.003   1.019
 40 B1   57 A1    9 A2   41 B1   58 A1   42 B1   10 A2   23 B2                 
  1.020   1.084   1.098   1.143   1.148   1.243   1.256   1.278
 59 A1   60 A1   11 A2   24 B2   12 A2   61 A1   43 B1   62 A1                 
  1.375   1.472   1.508   1.551   1.577   1.619   1.623   1.643
 25 B2   63 A1   44 B1   64 A1   45 B1   26 B2   13 A2   65 A1                 
  1.672   1.702   1.706   1.750   1.780   1.812   1.842   1.903
 27 B2   66 A1   46 B1   67 A1   47 B1   28 B2   14 A2   48 B1                 
  1.965   1.967   2.001   2.010   2.028   2.034   2.052   2.097
 68 A1   15 A2   29 B2   49 B1   69 A1   50 B1   30 B2   70 A1                 
  2.136   2.174   2.176   2.335   2.367   2.404   2.408   2.529
 51 B1   16 A2   71 A1   31 B2   52 B1   17 A2   32 B2   72 A1                 
  2.529   2.590   2.610   2.622   2.647   2.725   2.760   2.801
 53 B1   54 B1   73 A1   74 A1   55 B1   75 A1   76 A1   77 A1                 
  2.819   2.832   2.838   2.847   2.853   2.952   2.972   2.979
 56 B1   33 B2   78 A1   79 A1   57 B1   34 B2   80 A1   18 A2                 
  2.991   3.036   3.080   3.118   3.237   3.310   3.409   3.476
 58 B1   35 B2   19 A2   59 B1   36 B2   60 B1   81 A1   61 B1                 
  3.579   3.698   3.709   3.770   3.936   4.185   4.216   4.297
 82 A1   83 A1   62 B1   84 A1   85 A1   63 B1   86 A1   87 A1                 
  4.307   4.898   5.008   5.215   5.217   5.473   5.582   5.937
 64 B1   88 A1   65 B1   66 B1   89 A1   90 A1   67 B1   91 A1                 
  9.422   9.497   9.581  10.241  20.384  20.459  20.495  20.579
 37 B2   68 B1   92 A1   93 A1   94 A1   95 A1   69 B1   96 A1                 
 20.645  20.893  32.797  32.855  32.929  79.950  80.032  80.068
 70 B1   97 A1   38 B2   71 B1   98 A1   99 A1  100 A1   72 B1                 
 80.138  80.198  80.383 106.665 106.710 106.771 115.862 321.788
101 A1   73 B1  102 A1   39 B2   74 B1  103 A1  104 A1  105 A1                 
321.870 321.905 321.963 322.015 322.164 364.762 364.797 364.846
106 A1   75 B1  107 A1   76 B1  108 A1   40 B2   77 B1  109 A1                 
610.1851431.3561431.4351431.4671431.5141431.5601431.6841551.414
110 A1  111 A1  112 A1   78 B1  113 A1   79 B1  114 A1   41 B2                 
*******1551.4732284.9268391.7038749.5908749.6688749.6968749.732
 80 B1  115 A1  116 A1  117 A1  118 A1  119 A1   81 B1  120 A1                 
*******8749.871****************
 82 B1  121 A1  122 A1  123 A1                                                 

 Beta MOs, Unrestricted
 -- Occupied --                  
-105.06  -11.57  -11.47  -11.47  -11.47  -11.46  -11.46  -10.78
  1 A1    2 A1    3 A1    1 B1    4 A1    2 B1    5 A1    6 A1                 
 -8.253  -8.249  -8.246  -1.411  -1.336  -1.254  -1.181  -1.054
  7 A1    3 B1    1 B2    8 A1    9 A1    4 B1   10 A1    5 B1                 
 -1.027  -0.918  -0.865  -0.854  -0.820  -0.799  -0.729  -0.723
 11 A1   12 A1    6 B1   13 A1    7 B1   14 A1   15 A1    8 B1                 
 -0.713  -0.657  -0.638  -0.574
  2 B2    9 B1    3 B2    1 A2                                                 
 -- Virtual --                   
 -0.243  -0.086  -0.069  -0.068  -0.066  -0.064  -0.057  -0.052
  4 B2   16 A1   10 B1   17 A1    5 B2    2 A2    6 B2   18 A1                 
 -0.050  -0.049  -0.045  -0.038  -0.032  -0.027  -0.026  -0.024
 19 A1   11 B1    3 A2    7 B2   20 A1   12 B1   21 A1   22 A1                 
 -0.023  -0.022  -0.020  -0.019  -0.017  -0.011  -0.008  -0.005
 13 B1    8 B2    4 A2    9 B2   23 A1   14 B1   24 A1   15 B1                 
 -0.003  -0.003   0.003   0.003   0.014   0.019   0.026   0.033
 10 B2   25 A1   16 B1   26 A1   17 B1   27 A1   11 B2   28 A1                 
  0.044   0.047   0.050   0.054   0.066   0.075   0.083   0.085
 29 A1    5 A2   18 B1   12 B2   30 A1   31 A1   13 B2   19 B1                 
  0.091   0.092   0.097   0.100   0.107   0.109   0.112   0.114
 32 A1   20 B1    6 A2   14 B2   15 B2   21 B1   33 A1   22 B1                 
  0.123   0.131   0.133   0.151   0.151   0.153   0.167   0.179
 34 A1   35 A1   23 B1   36 A1   24 B1   37 A1   38 A1   25 B1                 
  0.182   0.199   0.214   0.231   0.238   0.247   0.263   0.268
 16 B2   26 B1   39 A1   40 A1   27 B1   41 A1   42 A1   28 B1                 
  0.317   0.330   0.344   0.352   0.448   0.453   0.465   0.481
 43 A1   29 B1   44 A1   30 B1   45 A1   31 B1   32 B1   17 B2                 
  0.491   0.534   0.548   0.556   0.561   0.564   0.584   0.600
 46 A1   47 A1   33 B1   18 B2   34 B1   48 A1    7 A2   35 B1                 
  0.608   0.615   0.638   0.644   0.683   0.701   0.706   0.744
 19 B2   49 A1    8 A2   20 B2   50 A1   21 B2   51 A1   36 B1                 
  0.746   0.773   0.777   0.830   0.832   0.847   0.853   0.873
 52 A1   37 B1   53 A1   38 B1   54 A1   22 B2   55 A1   56 A1                 
  0.886   0.896   0.907   0.926   0.930   0.973   0.995   1.024
 39 B1   40 B1   57 A1   41 B1    9 A2   58 A1   42 B1   59 A1                 
  1.028   1.029   1.093   1.100   1.159   1.167   1.254   1.257
 10 A2   23 B2   60 A1   11 A2   24 B2   12 A2   61 A1   43 B1                 
  1.281   1.392   1.481   1.509   1.560   1.578   1.623   1.634
 62 A1   25 B2   63 A1   44 B1   64 A1   45 B1   26 B2   13 A2                 
  1.648   1.686   1.700   1.712   1.762   1.788   1.818   1.842
 65 A1   27 B2   46 B1   66 A1   67 A1   47 B1   28 B2   14 A2                 
  1.903   1.967   1.986   2.008   2.009   2.033   2.037   2.066
 48 B1   68 A1   15 A2   29 B2   49 B1   50 B1   69 A1   30 B2                 
  2.102   2.141   2.177   2.187   2.344   2.369   2.414   2.418
 70 A1   51 B1   16 A2   71 A1   31 B2   52 B1   17 A2   32 B2                 
  2.531   2.534   2.591   2.611   2.623   2.647   2.726   2.763
 53 B1   72 A1   54 B1   73 A1   74 A1   55 B1   75 A1   76 A1                 
  2.801   2.819   2.838   2.848   2.850   2.853   2.973   2.975
 77 A1   56 B1   78 A1   79 A1   33 B2   57 B1   34 B2   80 A1                 
  2.983   2.992   3.063   3.080   3.118   3.247   3.314   3.414
 18 A2   58 B1   35 B2   19 A2   59 B1   36 B2   60 B1   81 A1                 
  3.481   3.580   3.700   3.709   3.772   3.942   4.186   4.222
 61 B1   82 A1   83 A1   62 B1   84 A1   85 A1   63 B1   86 A1                 
  4.298   4.312   4.902   5.014   5.218   5.224   5.482   5.583
 87 A1   64 B1   88 A1   65 B1   66 B1   89 A1   90 A1   67 B1                 
  5.940   9.428   9.498   9.581  10.244  20.388  20.461  20.495
 91 A1   37 B2   68 B1   92 A1   93 A1   94 A1   95 A1   69 B1                 
 20.583  20.644  20.895  32.801  32.856  32.929  79.951  80.033
 96 A1   70 B1   97 A1   38 B2   71 B1   98 A1   99 A1  100 A1                 
 80.068  80.139  80.197  80.384 106.667 106.711 106.772 115.863
 72 B1  101 A1   73 B1  102 A1   39 B2   74 B1  103 A1  104 A1                 
321.789 321.870 321.905 321.963 322.015 322.164 364.764 364.798
105 A1  106 A1   75 B1  107 A1   76 B1  108 A1   40 B2   77 B1                 
364.846 610.1851431.3561431.4351431.4671431.5141431.5601431.684
109 A1  110 A1  111 A1  112 A1   78 B1  113 A1   79 B1  114 A1                 
*******1551.4381551.4732284.9278391.7038749.5908749.6688749.696
 41 B2   80 B1  115 A1  116 A1  117 A1  118 A1  119 A1   81 B1                 
*******8749.7728749.871****************
120 A1   82 B1  121 A1  122 A1  123 A1                                         

 Occupation and symmetry of molecular orbitals

 Point group: C2v (4 irreducible representations).

                           A1   A2   B1   B2    All 
 ----------------------------------------------------
 All molecular orbitals:
  - Alpha                  123  19   82   41    265 
  - Beta                   123  19   82   41    265 
 ----------------------------------------------------
 Alpha orbitals:
  - Frozen occupied        7    0    3    1     11  
  - Active occupied        8    1    6    3     18  
  - Active virtual         108  18   73   37    236 
  - Frozen virtual         0    0    0    0     0   
 ----------------------------------------------------
 Beta orbitals:
  - Frozen occupied        7    0    3    1     11  
  - Active occupied        8    1    6    2     17  
  - Active virtual         108  18   73   38    237 
  - Frozen virtual         0    0    0    0     0   
 ----------------------------------------------------

 Import integrals:   CPU 0.00 s  wall 0.00 s

 Import integrals:   CPU 1573.00 s  wall 222.93 s

 MP2 amplitudes:   CPU 6.90 s  wall 1.39 s

Running a double precision version
           CCSD T amplitudes will be solved using DIIS.

           Start     Size      MaxIter   EConv     TConv     
           3         7         100       1.00e-06  1.00e-04  
 ------------------------------------------------------------------------------
           Energy (a.u.)   Ediff      Tdiff       Comment
 ------------------------------------------------------------------------------
          -690.31324652                           
     1    -690.33106036   1.78e-02   9.45e-01     
     2    -690.35949593   2.84e-02   1.18e-01     
     3    -690.36164162   2.15e-03   4.05e-02     
     4    -690.36526129   3.62e-03   1.56e-02     Switched to DIIS steps.
     5    -690.36760307   2.34e-03   1.51e-02     
     6    -690.36816970   5.67e-04   6.11e-03     
     7    -690.36836039   1.91e-04   3.30e-03     
     8    -690.36841954   5.92e-05   1.14e-03     
     9    -690.36843774   1.82e-05   4.69e-04     
    10    -690.36843913   1.39e-06   2.18e-04     
    11    -690.36843809   1.04e-06   1.68e-04     
    12    -690.36843851   4.22e-07   7.04e-05     
 ------------------------------------------------------------------------------
          -690.36843851                           CCSD T converged.

End of double precision
 SCF energy                 = -689.39356547
 MP2 energy                 = -690.31324652
 CCSD correlation energy     =   -0.97487305
 CCSD total energy           = -690.36843851

 CCSD  T1^2 = 0.0491  T2^2 = 0.3838  Leading amplitudes:

 Amplitude    Orbitals with energies
 -0.0993       2 (B2) B                  ->    4 (B2) B                   
              -0.7131                         -0.2432                     
 -0.0898       1 (A2) A                  ->    2 (A2) A                   
              -0.5665                         -0.0839                     
 -0.0673       1 (A2) B                  ->    2 (A2) B                   
              -0.5745                         -0.0640                     
  0.0589       3 (B2) B                  ->    4 (B2) B                   
              -0.6377                         -0.2432                     

 Amplitude    Orbitals with energies
  0.0668       1 (A2) A      1 (A2) B    ->    2 (A2) A      2 (A2) B     
              -0.5665       -0.5745           -0.0839       -0.0640       
 -0.0668       1 (A2) A      1 (A2) B    ->    2 (A2) B      2 (A2) A     
              -0.5665       -0.5745           -0.0640       -0.0839       
 -0.0668       1 (A2) B      1 (A2) A    ->    2 (A2) A      2 (A2) B     
              -0.5745       -0.5665           -0.0839       -0.0640       
  0.0668       1 (A2) B      1 (A2) A    ->    2 (A2) B      2 (A2) A     
              -0.5745       -0.5665           -0.0640       -0.0839       

 Computing CCSD intemediates for later calculations in double precision
 Finished.

Running a double precision version
           CCSD Lambda amplitudes will be solved using DIIS.
           Start     Size      MaxIter   EConv     LConv     
           3         7         100       1.00e-06  1.00e-04  
 ------------------------------------------------------------------------------
            Enorm      Ldiff       Comment
 ------------------------------------------------------------------------------
     1     6.66e-02   4.86e-02     
     2     1.57e-02   2.77e-03     
     3     7.02e-03   1.28e-03     
     4     3.98e-03   4.68e-04     Switched to DIIS steps.
     5     1.82e-03   1.97e-04     
     6     9.90e-04   2.12e-05     
     7     4.13e-04   1.02e-04     
     8     1.92e-04   4.99e-05     
     9     8.74e-05   1.56e-05     
    10     5.50e-05   5.41e-07     
    11     2.92e-05   3.23e-06     
    12     1.46e-05   3.20e-06     
    13     6.70e-06   1.64e-06     
    14     3.26e-06   9.38e-07     
    15     1.60e-06   3.75e-07     
    16     8.88e-07   1.83e-07     
 ------------------------------------------------------------------------------
                                   CCSD Lambda converged.

 CCSD calculation:   CPU 4149.51 s  wall 564.36 s

        Solving for CVS-EOMEE-CCSD A1 transitions.

        CVS-EOMEE-CCSD/MP2 right amplitudes will be solved using Davidson.
        Amplitudes will be solved using shifted  algorithm.
     Hard-coded thresholds: 
     LinDepThresh=1.00e-15  NormThresh=1.00e-06  ReorthogonThresh=1.00e-02

      Roots     MaxVec    MaxIter   Precond   Conv      Shift    
      5         120       60        1         1.00e-05  7.28e+00  
 ------------------------------------------------------------------------------
      Iter ConvRoots NVecs ResNorm Current eigenvalues (eV)
 ------------------------------------------------------------------------------
      0    0      5     2.98e+00   211.8191   216.7652   219.4170   219.4253   219.8571   
      1    0      10    6.51e+01   210.1585   215.0529   217.9145   217.9229   218.3490   
      2    0      15    7.76e-01   199.0096   203.6781   207.7245   207.7457   208.2647   
      3    0      20    4.58e-02   198.3701   202.9191   206.8499   206.8905   207.5457   
      4    0      25    7.23e-02   198.2471   202.8401   206.6075   206.6755   207.3757   
      5    0      30    2.15e-01   198.1770   202.7941   205.7147   206.0149   206.4265   
      6    0      35    4.31e-02   198.1596   202.7736   204.9625   205.4571   205.5648   
      7    0      40    1.34e-01   198.1582   202.7717   204.4084   205.0905   205.2520   
      8    0      45    5.17e-02   198.1540   202.7645   203.1974   204.3670   204.7076   
      9    0      50    4.87e-02   198.1528   202.6316   202.7614   203.6914   204.5524   
      10   1      55    4.81e-03   198.1526*  202.4738   202.7551   203.4427   204.5135   
      11   1      59    1.26e-02   198.1526*  202.3852   202.7523   203.3083   204.4994   
      12   1      63    7.93e-04   198.1526*  202.3448   202.7498   203.2361   204.4938   
      13   1      67    4.03e-04   198.1526*  202.3414   202.7494   203.2242   204.4927   
      14   2      71    4.96e-05   198.1526*  202.3401   202.7494*  203.2214   204.4923   
      15   2      74    3.89e-05   198.1526*  202.3393   202.7493*  203.2199   204.4919   
      16   4      77    7.55e-06   198.1526*  202.3395*  202.7493*  203.2198   204.4918*  
      17   4      78    5.18e-06   198.1526*  202.3395*  202.7493*  203.2197   204.4917*  
      18   5      79    3.22e-06   198.1526*  202.3395*  202.7493*  203.2196*  204.4917*  

     Davidson procedure converged

 EOMEE transition 1/A1
 Total energy = -683.08646567 a.u.  Excitation energy = 198.1526 eV.
 R0^2 = 0.0000  R1^2 = 0.8649  R2_CCVV^2 = 0.0045  R2_COVV^2 = 0.0653  Res^2 = 2.65e-07
 Conv-d = yes

 Amplitude    Transitions between orbitals
 -0.8962       1 (B2) B                  ->    4 (B2) B                   
  0.1541       1 (B2) B                  ->    6 (B2) B                   
 -0.0905       1 (B2) B                  ->    7 (B2) B                   
  0.0802       1 (B2) B                  ->    15 (B2) B                  

              Summary of significant orbitals:

               Number  Type             Irrep      Energy
               11      Occ  Beta        1 (B2)     -8.2462
               29      Vir  Beta        4 (B2)     -0.2432
               35      Vir  Beta        6 (B2)     -0.0569
               40      Vir  Beta        7 (B2)     -0.0379
               73      Vir  Beta       15 (B2)      0.1073


 EOMEE transition 2/A1
 Total energy = -682.93259945 a.u.  Excitation energy = 202.3395 eV.
 R0^2 = 0.0000  R1^2 = 0.8958  R2_CCVV^2 = 0.0046  R2_COVV^2 = 0.0498  Res^2 = 8.64e-06
 Conv-d = yes

 Amplitude    Transitions between orbitals
 -0.2926       7 (A1) A                  ->    27 (A1) A                  
 -0.2785       7 (A1) A                  ->    25 (A1) A                  
  0.2739       7 (A1) A                  ->    29 (A1) A                  
  0.2424       7 (A1) B                  ->    29 (A1) B                  
  0.2371       7 (A1) A                  ->    28 (A1) A                  
 -0.2054       7 (A1) B                  ->    27 (A1) B                  
 -0.2051       7 (A1) A                  ->    23 (A1) A                  
  0.1876       7 (A1) B                  ->    25 (A1) B                  
  0.1728       7 (A1) A                  ->    20 (A1) A                  
  0.1644       7 (A1) B                  ->    28 (A1) B                  
  0.1617       7 (A1) A                  ->    32 (A1) A                  
 -0.1524       7 (A1) A                  ->    38 (A1) A                  
 -0.1482       7 (A1) A                  ->    37 (A1) A                  
 -0.1471       7 (A1) B                  ->    38 (A1) B                  
 -0.1354       7 (A1) B                  ->    23 (A1) B                  
  0.1338       7 (A1) B                  ->    37 (A1) B                  
  0.1289       7 (A1) B                  ->    32 (A1) B                  
  0.1218       7 (A1) A                  ->    35 (A1) A                  
  0.1206       7 (A1) A                  ->    19 (A1) A                  
  0.1198       7 (A1) A                  ->    36 (A1) A                  
 -0.1139       7 (A1) A                  ->    30 (A1) A                  
  0.1135       7 (A1) B                  ->    20 (A1) B                  
  0.1095       7 (A1) B                  ->    35 (A1) B                  
  0.1073       7 (A1) A                  ->    46 (A1) A                  
  0.1040       7 (A1) A                  ->    18 (A1) A                  

              Summary of significant orbitals:

               Number  Type             Irrep      Energy
               10      Occ  Alpha       7 (A1)     -8.2530
               9       Occ  Beta        7 (A1)     -8.2530
               36      Vir  Alpha      18 (A1)     -0.0525
               37      Vir  Alpha      19 (A1)     -0.0503
               41      Vir  Alpha      20 (A1)     -0.0321
               49      Vir  Alpha      23 (A1)     -0.0180
               53      Vir  Alpha      25 (A1)     -0.0038
               58      Vir  Alpha      27 (A1)      0.0163
               60      Vir  Alpha      28 (A1)      0.0304
               61      Vir  Alpha      29 (A1)      0.0403
               65      Vir  Alpha      30 (A1)      0.0647
               69      Vir  Alpha      32 (A1)      0.0903
               78      Vir  Alpha      35 (A1)      0.1278
               80      Vir  Alpha      36 (A1)      0.1490
               81      Vir  Alpha      37 (A1)      0.1506
               84      Vir  Alpha      38 (A1)      0.1639
               101     Vir  Alpha      46 (A1)      0.4803
               41      Vir  Beta       20 (A1)     -0.0316
               49      Vir  Beta       23 (A1)     -0.0173
               54      Vir  Beta       25 (A1)     -0.0027
               58      Vir  Beta       27 (A1)      0.0186
               60      Vir  Beta       28 (A1)      0.0325
               61      Vir  Beta       29 (A1)      0.0437
               69      Vir  Beta       32 (A1)      0.0908
               78      Vir  Beta       35 (A1)      0.1308
               82      Vir  Beta       37 (A1)      0.1533
               83      Vir  Beta       38 (A1)      0.1670


 EOMEE transition 3/A1
 Total energy = -682.91753869 a.u.  Excitation energy = 202.7493 eV.
 R0^2 = 0.0000  R1^2 = 0.8474  R2_CCVV^2 = 0.0045  R2_COVV^2 = 0.0740  Res^2 = 2.12e-07
 Conv-d = yes

 Amplitude    Transitions between orbitals
  0.8746       1 (B2) A                  ->    5 (B2) A                   
  0.0910       1 (B2) A                  ->    13 (B2) A                  
  0.0757       1 (B2) A                  ->    6 (B2) A                   
  0.0726       1 (B2) A                  ->    16 (B2) A                  

              Summary of significant orbitals:

               Number  Type             Irrep      Energy
               9       Occ  Alpha       1 (B2)     -8.2543
               30      Vir  Alpha       5 (B2)     -0.1334
               35      Vir  Alpha       6 (B2)     -0.0655
               67      Vir  Alpha      13 (B2)      0.0732
               83      Vir  Alpha      16 (B2)      0.1606


 EOMEE transition 4/A1
 Total energy = -682.90025590 a.u.  Excitation energy = 203.2196 eV.
 R0^2 = 0.0000  R1^2 = 0.8824  R2_CCVV^2 = 0.0048  R2_COVV^2 = 0.0564  Res^2 = 3.84e-06
 Conv-d = yes

 Amplitude    Transitions between orbitals
 -0.3107       7 (A1) B                  ->    29 (A1) B                  
  0.2749       7 (A1) B                  ->    27 (A1) B                  
 -0.2587       7 (A1) B                  ->    25 (A1) B                  
 -0.2385       1 (B2) A                  ->    5 (B2) A                   
 -0.2326       7 (A1) B                  ->    28 (A1) B                  
 -0.2098       7 (A1) A                  ->    27 (A1) A                  
 -0.2054       7 (A1) A                  ->    25 (A1) A                  
  0.1858       7 (A1) A                  ->    29 (A1) A                  
  0.1837       7 (A1) B                  ->    23 (A1) B                  
  0.1787       7 (A1) A                  ->    28 (A1) A                  
  0.1695       7 (A1) B                  ->    38 (A1) B                  
 -0.1584       7 (A1) B                  ->    20 (A1) B                  
 -0.1554       7 (A1) B                  ->    37 (A1) B                  
 -0.1490       7 (A1) B                  ->    32 (A1) B                  
 -0.1490       7 (A1) A                  ->    23 (A1) A                  
 -0.1302       7 (A1) B                  ->    19 (A1) B                  
  0.1299       7 (A1) A                  ->    20 (A1) A                  
 -0.1271       7 (A1) B                  ->    35 (A1) B                  
 -0.1162       7 (A1) B                  ->    30 (A1) B                  
  0.1028       7 (A1) A                  ->    19 (A1) A                  

              Summary of significant orbitals:

               Number  Type             Irrep      Energy
               10      Occ  Alpha       7 (A1)     -8.2530
               9       Occ  Alpha       1 (B2)     -8.2543
               9       Occ  Beta        7 (A1)     -8.2530
               37      Vir  Alpha      19 (A1)     -0.0503
               41      Vir  Alpha      20 (A1)     -0.0321
               49      Vir  Alpha      23 (A1)     -0.0180
               53      Vir  Alpha      25 (A1)     -0.0038
               58      Vir  Alpha      27 (A1)      0.0163
               60      Vir  Alpha      28 (A1)      0.0304
               61      Vir  Alpha      29 (A1)      0.0403
               30      Vir  Alpha       5 (B2)     -0.1334
               37      Vir  Beta       19 (A1)     -0.0499
               41      Vir  Beta       20 (A1)     -0.0316
               49      Vir  Beta       23 (A1)     -0.0173
               54      Vir  Beta       25 (A1)     -0.0027
               58      Vir  Beta       27 (A1)      0.0186
               60      Vir  Beta       28 (A1)      0.0325
               61      Vir  Beta       29 (A1)      0.0437
               65      Vir  Beta       30 (A1)      0.0661
               69      Vir  Beta       32 (A1)      0.0908
               78      Vir  Beta       35 (A1)      0.1308
               82      Vir  Beta       37 (A1)      0.1533
               83      Vir  Beta       38 (A1)      0.1670


 EOMEE transition 5/A1
 Total energy = -682.85350490 a.u.  Excitation energy = 204.4917 eV.
 R0^2 = 0.0000  R1^2 = 0.8340  R2_CCVV^2 = 0.0044  R2_COVV^2 = 0.0808  Res^2 = 3.15e-06
 Conv-d = yes

 Amplitude    Transitions between orbitals
  0.6941       1 (B2) B                  ->    6 (B2) B                   
 -0.4062       1 (B2) B                  ->    7 (B2) B                   
  0.2073       1 (B2) B                  ->    4 (B2) B                   
  0.1641       1 (B2) B                  ->    15 (B2) B                  
 -0.1561       1 (B2) B                  ->    13 (B2) B                  
 -0.1467       1 (B2) B                  ->    8 (B2) B                   
  0.1463       1 (B2) B                  ->    5 (B2) B                   
  0.1399       1 (B2) B                  ->    9 (B2) B                   
 -0.1217       1 (B2) B                  ->    16 (B2) B                  

              Summary of significant orbitals:

               Number  Type             Irrep      Energy
               11      Occ  Beta        1 (B2)     -8.2462
               29      Vir  Beta        4 (B2)     -0.2432
               33      Vir  Beta        5 (B2)     -0.0663
               35      Vir  Beta        6 (B2)     -0.0569
               40      Vir  Beta        7 (B2)     -0.0379
               46      Vir  Beta        8 (B2)     -0.0220
               48      Vir  Beta        9 (B2)     -0.0187
               67      Vir  Beta       13 (B2)      0.0827
               73      Vir  Beta       15 (B2)      0.1073
               85      Vir  Beta       16 (B2)      0.1815


      CVS-EOM-CCSD/MP2 left amplitudes will be solved using Davidson.
        Amplitudes will be solved using MOM  algorithm.
     Hard-coded thresholds: 
     LinDepThresh=1.00e-15  NormThresh=1.00e-06  ReorthogonThresh=1.00e-02

      Roots     MaxVec    MaxIter   Precond   Conv      Shift    
      5         120       60        1         1.00e-05  7.28e+00  
 ------------------------------------------------------------------------------
      Iter ConvRoots NVecs ResNorm Current eigenvalues (eV)
 ------------------------------------------------------------------------------
      0    0      5     2.16e-02   198.1526   202.3395   202.7493   203.2196   204.4917   
      1    0      10    1.30e+02   198.1526   202.3395   202.7493   203.2196   204.4918   
      2    0      15    2.23e-01   198.1526   202.3393   202.7493   203.2196   204.4918   
      3    0      20    1.08e-02   198.1526   202.3394   202.7493   203.2196   204.4918   
      4    0      25    8.90e-04   198.1526   202.3394   202.7493   203.2196   204.4918   
      5    0      30    9.08e-05   198.1526   202.3394   202.7493   203.2196   204.4918   
      6    1      35    3.17e-05   198.1526   202.3394*  202.7493   203.2196   204.4918   
      7    4      39    1.75e-05   198.1526*  202.3394*  202.7493*  203.2196*  204.4918   
      8    3      40    1.87e-05   198.1526   202.3394*  202.7493*  203.2196*  204.4918   
      9    5      42    2.74e-06   198.1526*  202.3394*  202.7493*  203.2196*  204.4918*  

     Davidson procedure converged

        Solving for CVS-EOMEE-CCSD B1 transitions.

        CVS-EOMEE-CCSD/MP2 right amplitudes will be solved using Davidson.
        Amplitudes will be solved using shifted  algorithm.
     Hard-coded thresholds: 
     LinDepThresh=1.00e-15  NormThresh=1.00e-06  ReorthogonThresh=1.00e-02

      Roots     MaxVec    MaxIter   Precond   Conv      Shift    
      4         120       60        1         1.00e-05  7.28e+00  
 ------------------------------------------------------------------------------
      Iter ConvRoots NVecs ResNorm Current eigenvalues (eV)
 ------------------------------------------------------------------------------
      0    0      4     2.97e+00   218.7465   219.3514   219.3936   220.3405   
      1    0      8     7.01e+01   217.2517   217.6773   217.8228   218.8139   
      2    0      12    9.98e-01   206.1079   207.1389   207.5750   208.5298   
      3    0      16    5.36e-02   205.3346   206.3869   206.7036   207.6572   
      4    0      20    1.13e-01   205.2727   206.1890   206.4789   207.3315   
      5    0      24    2.79e-01   204.6733   205.2330   205.6630   205.7764   
      6    0      28    4.35e-02   203.4854   205.0137   205.2114   205.6219   
      7    0      32    1.25e-01   203.0142   204.5888   205.2133   205.6109   
      8    0      36    4.54e-02   202.6958   203.3523   205.2112   205.6007   
      9    0      40    2.38e-02   202.5897   202.8353   205.2098   205.5898   
      10   1      44    3.68e-03   202.4928   202.7261   205.2097*  205.5851   
      11   1      47    7.13e-03   202.4058   202.6948   205.2097*  205.5825   
      12   1      50    6.81e-04   202.3666   202.6852   205.2097*  205.5752   
      13   1      53    4.81e-04   202.3612   202.6839   205.2097*  205.5687   
      14   1      56    1.20e-04   202.3595   202.6835   205.2097*  205.5644   
      15   1      59    1.65e-04   202.3589   202.6834   205.2097*  205.5610   
      16   3      62    4.55e-05   202.3588*  202.6833*  205.2097*  205.5590   
      17   3      63    4.02e-05   202.3587*  202.6833*  205.2097*  205.5581   
      18   3      64    1.58e-05   202.3588*  202.6833*  205.2097*  205.5577   
      19   3      65    9.24e-06   202.3588*  202.6833*  205.2097*  205.5575   
      20   3      66    6.90e-06   202.3588*  202.6833*  205.2097*  205.5573   
      21   4      67    3.66e-06   202.3588*  202.6833*  205.2097*  205.5572*  

     Davidson procedure converged

 EOMEE transition 1/B1
 Total energy = -682.93189066 a.u.  Excitation energy = 202.3588 eV.
 R0^2 = 0.0000  R1^2 = 0.8929  R2_CCVV^2 = 0.0047  R2_COVV^2 = 0.0512  Res^2 = 1.74e-06
 Conv-d = yes

 Amplitude    Transitions between orbitals
 -0.3474       3 (B1) A                  ->    27 (A1) A                  
 -0.3335       3 (B1) A                  ->    25 (A1) A                  
  0.3224       3 (B1) A                  ->    29 (A1) A                  
  0.2835       3 (B1) A                  ->    28 (A1) A                  
 -0.2441       3 (B1) A                  ->    23 (A1) A                  
  0.2059       3 (B1) A                  ->    20 (A1) A                  
  0.1851       3 (B1) A                  ->    32 (A1) A                  
 -0.1758       3 (B1) A                  ->    38 (A1) A                  
 -0.1712       3 (B1) A                  ->    37 (A1) A                  
  0.1498       3 (B1) A                  ->    19 (A1) A                  
  0.1394       3 (B1) A                  ->    36 (A1) A                  
  0.1389       3 (B1) A                  ->    35 (A1) A                  
 -0.1373       3 (B1) A                  ->    30 (A1) A                  
 -0.1326       3 (B1) B                  ->    29 (A1) B                  
  0.1251       3 (B1) A                  ->    18 (A1) A                  
  0.1168       3 (B1) A                  ->    46 (A1) A                  
  0.1126       3 (B1) B                  ->    27 (A1) B                  
  0.1068       3 (B1) A                  ->    21 (A1) A                  
 -0.1060       3 (B1) B                  ->    25 (A1) B                  

              Summary of significant orbitals:

               Number  Type             Irrep      Energy
               11      Occ  Alpha       3 (B1)     -8.2504
               10      Occ  Beta        3 (B1)     -8.2494
               36      Vir  Alpha      18 (A1)     -0.0525
               37      Vir  Alpha      19 (A1)     -0.0503
               41      Vir  Alpha      20 (A1)     -0.0321
               43      Vir  Alpha      21 (A1)     -0.0263
               49      Vir  Alpha      23 (A1)     -0.0180
               53      Vir  Alpha      25 (A1)     -0.0038
               58      Vir  Alpha      27 (A1)      0.0163
               60      Vir  Alpha      28 (A1)      0.0304
               61      Vir  Alpha      29 (A1)      0.0403
               65      Vir  Alpha      30 (A1)      0.0647
               69      Vir  Alpha      32 (A1)      0.0903
               78      Vir  Alpha      35 (A1)      0.1278
               80      Vir  Alpha      36 (A1)      0.1490
               81      Vir  Alpha      37 (A1)      0.1506
               84      Vir  Alpha      38 (A1)      0.1639
               101     Vir  Alpha      46 (A1)      0.4803
               54      Vir  Beta       25 (A1)     -0.0027
               58      Vir  Beta       27 (A1)      0.0186
               61      Vir  Beta       29 (A1)      0.0437


 EOMEE transition 2/B1
 Total energy = -682.91996350 a.u.  Excitation energy = 202.6833 eV.
 R0^2 = 0.0000  R1^2 = 0.8913  R2_CCVV^2 = 0.0047  R2_COVV^2 = 0.0520  Res^2 = 5.42e-07
 Conv-d = yes

 Amplitude    Transitions between orbitals
  0.3812       3 (B1) B                  ->    29 (A1) B                  
 -0.3309       3 (B1) B                  ->    27 (A1) B                  
  0.3067       3 (B1) B                  ->    25 (A1) B                  
  0.2721       3 (B1) B                  ->    28 (A1) B                  
 -0.2189       3 (B1) B                  ->    23 (A1) B                  
 -0.2185       3 (B1) B                  ->    38 (A1) B                  
  0.1990       3 (B1) B                  ->    37 (A1) B                  
  0.1922       3 (B1) B                  ->    32 (A1) B                  
  0.1870       3 (B1) B                  ->    20 (A1) B                  
  0.1630       3 (B1) B                  ->    35 (A1) B                  
  0.1443       3 (B1) B                  ->    19 (A1) B                  
  0.1392       3 (B1) B                  ->    30 (A1) B                  
 -0.1234       3 (B1) A                  ->    27 (A1) A                  
  0.1231       3 (B1) B                  ->    46 (A1) B                  
 -0.1168       3 (B1) A                  ->    25 (A1) A                  
  0.1140       3 (B1) B                  ->    18 (A1) B                  
  0.1113       3 (B1) A                  ->    29 (A1) A                  
  0.1016       3 (B1) A                  ->    28 (A1) A                  

              Summary of significant orbitals:

               Number  Type             Irrep      Energy
               11      Occ  Alpha       3 (B1)     -8.2504
               10      Occ  Beta        3 (B1)     -8.2494
               53      Vir  Alpha      25 (A1)     -0.0038
               58      Vir  Alpha      27 (A1)      0.0163
               60      Vir  Alpha      28 (A1)      0.0304
               61      Vir  Alpha      29 (A1)      0.0403
               36      Vir  Beta       18 (A1)     -0.0521
               37      Vir  Beta       19 (A1)     -0.0499
               41      Vir  Beta       20 (A1)     -0.0316
               49      Vir  Beta       23 (A1)     -0.0173
               54      Vir  Beta       25 (A1)     -0.0027
               58      Vir  Beta       27 (A1)      0.0186
               60      Vir  Beta       28 (A1)      0.0325
               61      Vir  Beta       29 (A1)      0.0437
               65      Vir  Beta       30 (A1)      0.0661
               69      Vir  Beta       32 (A1)      0.0908
               78      Vir  Beta       35 (A1)      0.1308
               82      Vir  Beta       37 (A1)      0.1533
               83      Vir  Beta       38 (A1)      0.1670
               101     Vir  Beta       46 (A1)      0.4905


 EOMEE transition 3/B1
 Total energy = -682.82712016 a.u.  Excitation energy = 205.2097 eV.
 R0^2 = 0.0000  R1^2 = 0.8322  R2_CCVV^2 = 0.0045  R2_COVV^2 = 0.0816  Res^2 = 6.80e-06
 Conv-d = yes

 Amplitude    Transitions between orbitals
  0.8974       1 (B2) A                  ->    2 (A2) A                   
  0.1032       1 (B2) A                  ->    6 (A2) A                   
  0.0953       1 (B2) A                  ->    4 (A2) A                   
 -0.0592       1 (B2) A                  ->    3 (A2) A                   

              Summary of significant orbitals:

               Number  Type             Irrep      Energy
               9       Occ  Alpha       1 (B2)     -8.2543
               32      Vir  Alpha       2 (A2)     -0.0839
               39      Vir  Alpha       3 (A2)     -0.0453
               47      Vir  Alpha       4 (A2)     -0.0215
               71      Vir  Alpha       6 (A2)      0.0934


 EOMEE transition 4/B1
 Total energy = -682.81434846 a.u.  Excitation energy = 205.5572 eV.
 R0^2 = 0.0000  R1^2 = 0.8717  R2_CCVV^2 = 0.0046  R2_COVV^2 = 0.0618  Res^2 = 5.55e-06
 Conv-d = yes

 Amplitude    Transitions between orbitals
  0.4291       3 (B1) A                  ->    16 (A1) A                  
  0.3820       3 (B1) A                  ->    17 (A1) A                  
 -0.3079       3 (B1) B                  ->    16 (A1) B                  
 -0.2770       3 (B1) B                  ->    17 (A1) B                  
 -0.2591       3 (B1) A                  ->    22 (A1) A                  
  0.2195       3 (B1) A                  ->    30 (A1) A                  
  0.1909       3 (B1) A                  ->    20 (A1) A                  
  0.1877       3 (B1) B                  ->    22 (A1) B                  
  0.1624       3 (B1) B                  ->    30 (A1) B                  
 -0.1407       3 (B1) B                  ->    20 (A1) B                  
 -0.1229       3 (B1) A                  ->    18 (A1) A                  
  0.1182       3 (B1) A                  ->    32 (A1) A                  
 -0.1064       3 (B1) A                  ->    40 (A1) A                  

              Summary of significant orbitals:

               Number  Type             Irrep      Energy
               11      Occ  Alpha       3 (B1)     -8.2504
               10      Occ  Beta        3 (B1)     -8.2494
               31      Vir  Alpha      16 (A1)     -0.0861
               34      Vir  Alpha      17 (A1)     -0.0685
               36      Vir  Alpha      18 (A1)     -0.0525
               41      Vir  Alpha      20 (A1)     -0.0321
               44      Vir  Alpha      22 (A1)     -0.0241
               65      Vir  Alpha      30 (A1)      0.0647
               69      Vir  Alpha      32 (A1)      0.0903
               88      Vir  Alpha      40 (A1)      0.2300
               30      Vir  Beta       16 (A1)     -0.0858
               32      Vir  Beta       17 (A1)     -0.0681
               41      Vir  Beta       20 (A1)     -0.0316
               44      Vir  Beta       22 (A1)     -0.0237
               65      Vir  Beta       30 (A1)      0.0661


      CVS-EOM-CCSD/MP2 left amplitudes will be solved using Davidson.
        Amplitudes will be solved using MOM  algorithm.
     Hard-coded thresholds: 
     LinDepThresh=1.00e-15  NormThresh=1.00e-06  ReorthogonThresh=1.00e-02

      Roots     MaxVec    MaxIter   Precond   Conv      Shift    
      4         120       60        1         1.00e-05  7.28e+00  
 ------------------------------------------------------------------------------
      Iter ConvRoots NVecs ResNorm Current eigenvalues (eV)
 ------------------------------------------------------------------------------
      0    0      4     1.80e-02   202.3588   202.6833   205.2097   205.5572   
      1    0      8     1.86e+02   202.3588   202.6833   205.2097   205.5572   
      2    0      12    4.86e-01   202.3588   202.6833   205.2097   205.5573   
      3    0      16    1.95e-02   202.3588   202.6833   205.2098   205.5573   
      4    0      20    5.12e-03   202.3588   202.6833   205.2098   205.5572   
      5    1      24    2.10e-04   202.3588   202.6833   205.2097   205.5572*  
      6    1      27    6.30e-05   202.3588   202.6833   205.2097   205.5572*  
      7    3      30    1.32e-05   202.3588*  202.6833*  205.2097   205.5572*  
      8    3      31    6.78e-06   202.3588*  202.6833*  205.2097   205.5572*  
      9    4      32    3.91e-06   202.3588*  202.6833*  205.2097*  205.5572*  

     Davidson procedure converged

        Solving for CVS-EOMEE-CCSD B2 transitions.

        CVS-EOMEE-CCSD/MP2 right amplitudes will be solved using Davidson.
        Amplitudes will be solved using shifted  algorithm.
     Hard-coded thresholds: 
     LinDepThresh=1.00e-15  NormThresh=1.00e-06  ReorthogonThresh=1.00e-02

      Roots     MaxVec    MaxIter   Precond   Conv      Shift    
      5         120       60        1         1.00e-05  7.28e+00  
 ------------------------------------------------------------------------------
      Iter ConvRoots NVecs ResNorm Current eigenvalues (eV)
 ------------------------------------------------------------------------------
      0    0      5     3.02e+00   211.9309   216.6658   219.2327   219.2625   219.4802   
      1    0      10    6.67e+01   210.2845   214.9802   217.5443   217.7202   217.9538   
      2    0      15    8.23e-01   199.1721   203.6733   205.9837   207.5055   207.6929   
      3    0      20    4.42e-02   198.5267   202.9585   205.2556   206.6578   206.7846   
      4    0      25    5.74e-02   198.3999   202.8768   205.1943   206.4365   206.5569   
      5    0      30    1.22e-01   198.3313   202.8311   205.1557   205.6395   205.7685   
      6    0      35    2.98e-02   198.3129   202.8137   205.0355   205.1019   205.1350   
      7    0      40    1.09e-01   198.3115   202.8124   204.6617   204.7069   205.1359   
      8    0      45    6.37e-02   198.3071   202.8088   203.4217   203.6396   205.1342   
      9    0      50    5.73e-02   198.3061   202.7789   202.8481   203.0694   205.0430   
      10   1      55    7.81e-03   198.3060*  202.6015   202.8097   202.8650   204.7708   
      11   1      59    1.25e-02   198.3060*  202.4832   202.7287   202.8155   204.7082   
      12   1      63    9.81e-04   198.3061*  202.4309   202.6700   202.8138   204.6917   
      13   1      67    4.31e-04   198.3061*  202.4253   202.6637   202.8136   204.6865   
      14   2      71    7.70e-05   198.3061*  202.4236   202.6617   202.8136*  204.6807   
      15   2      74    4.73e-05   198.3061*  202.4225   202.6603   202.8136*  204.6800   
      16   2      77    9.27e-06   198.3061*  202.4226   202.6605   202.8136*  204.6806   
      17   5      80    4.67e-06   198.3061*  202.4225*  202.6604*  202.8136*  204.6803*  

     Davidson procedure converged

 EOMEE transition 1/B2
 Total energy = -683.08082479 a.u.  Excitation energy = 198.3061 eV.
 R0^2 = 0.0000  R1^2 = 0.8636  R2_CCVV^2 = 0.0045  R2_COVV^2 = 0.0659  Res^2 = 5.41e-07
 Conv-d = yes

 Amplitude    Transitions between orbitals
 -0.8957       7 (A1) B                  ->    4 (B2) B                   
  0.1565       7 (A1) B                  ->    6 (B2) B                   
 -0.0925       7 (A1) B                  ->    7 (B2) B                   
  0.0819       7 (A1) B                  ->    15 (B2) B                  

              Summary of significant orbitals:

               Number  Type             Irrep      Energy
               9       Occ  Beta        7 (A1)     -8.2530
               29      Vir  Beta        4 (B2)     -0.2432
               35      Vir  Beta        6 (B2)     -0.0569
               40      Vir  Beta        7 (B2)     -0.0379
               73      Vir  Beta       15 (B2)      0.1073


 EOMEE transition 2/B2
 Total energy = -682.92954734 a.u.  Excitation energy = 202.4225 eV.
 R0^2 = 0.0000  R1^2 = 0.8906  R2_CCVV^2 = 0.0047  R2_COVV^2 = 0.0524  Res^2 = 6.21e-06
 Conv-d = yes

 Amplitude    Transitions between orbitals
  0.3185       1 (B2) A                  ->    27 (A1) A                  
  0.3063       1 (B2) A                  ->    25 (A1) A                  
 -0.2966       1 (B2) A                  ->    29 (A1) A                  
 -0.2615       1 (B2) A                  ->    28 (A1) A                  
  0.2248       1 (B2) A                  ->    23 (A1) A                  
  0.1951       1 (B2) B                  ->    29 (A1) B                  
 -0.1885       1 (B2) A                  ->    20 (A1) A                  
 -0.1709       1 (B2) A                  ->    32 (A1) A                  
 -0.1665       1 (B2) B                  ->    27 (A1) B                  
  0.1625       1 (B2) A                  ->    38 (A1) A                  
  0.1591       1 (B2) A                  ->    37 (A1) A                  
  0.1562       1 (B2) B                  ->    25 (A1) B                  
 -0.1374       1 (B2) A                  ->    19 (A1) A                  
  0.1372       1 (B2) B                  ->    28 (A1) B                  
 -0.1297       1 (B2) A                  ->    35 (A1) A                  
 -0.1283       1 (B2) A                  ->    36 (A1) A                  
  0.1278       1 (B2) A                  ->    30 (A1) A                  
 -0.1147       1 (B2) B                  ->    38 (A1) B                  
 -0.1146       1 (B2) A                  ->    18 (A1) A                  
 -0.1120       1 (B2) B                  ->    23 (A1) B                  
 -0.1080       1 (B2) A                  ->    46 (A1) A                  
  0.1057       1 (B2) B                  ->    37 (A1) B                  

              Summary of significant orbitals:

               Number  Type             Irrep      Energy
               9       Occ  Alpha       1 (B2)     -8.2543
               11      Occ  Beta        1 (B2)     -8.2462
               36      Vir  Alpha      18 (A1)     -0.0525
               37      Vir  Alpha      19 (A1)     -0.0503
               41      Vir  Alpha      20 (A1)     -0.0321
               49      Vir  Alpha      23 (A1)     -0.0180
               53      Vir  Alpha      25 (A1)     -0.0038
               58      Vir  Alpha      27 (A1)      0.0163
               60      Vir  Alpha      28 (A1)      0.0304
               61      Vir  Alpha      29 (A1)      0.0403
               65      Vir  Alpha      30 (A1)      0.0647
               69      Vir  Alpha      32 (A1)      0.0903
               78      Vir  Alpha      35 (A1)      0.1278
               80      Vir  Alpha      36 (A1)      0.1490
               81      Vir  Alpha      37 (A1)      0.1506
               84      Vir  Alpha      38 (A1)      0.1639
               101     Vir  Alpha      46 (A1)      0.4803
               49      Vir  Beta       23 (A1)     -0.0173
               54      Vir  Beta       25 (A1)     -0.0027
               58      Vir  Beta       27 (A1)      0.0186
               60      Vir  Beta       28 (A1)      0.0325
               61      Vir  Beta       29 (A1)      0.0437
               82      Vir  Beta       37 (A1)      0.1533
               83      Vir  Beta       38 (A1)      0.1670


 EOMEE transition 3/B2
 Total energy = -682.92080532 a.u.  Excitation energy = 202.6604 eV.
 R0^2 = 0.0000  R1^2 = 0.8905  R2_CCVV^2 = 0.0047  R2_COVV^2 = 0.0524  Res^2 = 8.15e-06
 Conv-d = yes

 Amplitude    Transitions between orbitals
  0.3528       1 (B2) B                  ->    29 (A1) B                  
 -0.3063       1 (B2) B                  ->    27 (A1) B                  
  0.2839       1 (B2) B                  ->    25 (A1) B                  
  0.2532       1 (B2) B                  ->    28 (A1) B                  
 -0.2034       1 (B2) B                  ->    23 (A1) B                  
 -0.2023       1 (B2) B                  ->    38 (A1) B                  
  0.1841       1 (B2) B                  ->    37 (A1) B                  
  0.1785       1 (B2) B                  ->    32 (A1) B                  
 -0.1770       1 (B2) A                  ->    27 (A1) A                  
  0.1742       1 (B2) B                  ->    20 (A1) B                  
 -0.1684       1 (B2) A                  ->    25 (A1) A                  
  0.1616       1 (B2) A                  ->    29 (A1) A                  
  0.1521       1 (B2) B                  ->    35 (A1) B                  
  0.1453       1 (B2) A                  ->    28 (A1) A                  
  0.1334       1 (B2) B                  ->    19 (A1) B                  
  0.1283       1 (B2) B                  ->    30 (A1) B                  
 -0.1237       1 (B2) A                  ->    23 (A1) A                  
  0.1130       1 (B2) B                  ->    46 (A1) B                  
  0.1079       1 (B2) A                  ->    20 (A1) A                  
  0.1051       1 (B2) B                  ->    18 (A1) B                  

              Summary of significant orbitals:

               Number  Type             Irrep      Energy
               9       Occ  Alpha       1 (B2)     -8.2543
               11      Occ  Beta        1 (B2)     -8.2462
               41      Vir  Alpha      20 (A1)     -0.0321
               49      Vir  Alpha      23 (A1)     -0.0180
               53      Vir  Alpha      25 (A1)     -0.0038
               58      Vir  Alpha      27 (A1)      0.0163
               60      Vir  Alpha      28 (A1)      0.0304
               61      Vir  Alpha      29 (A1)      0.0403
               36      Vir  Beta       18 (A1)     -0.0521
               37      Vir  Beta       19 (A1)     -0.0499
               41      Vir  Beta       20 (A1)     -0.0316
               49      Vir  Beta       23 (A1)     -0.0173
               54      Vir  Beta       25 (A1)     -0.0027
               58      Vir  Beta       27 (A1)      0.0186
               60      Vir  Beta       28 (A1)      0.0325
               61      Vir  Beta       29 (A1)      0.0437
               65      Vir  Beta       30 (A1)      0.0661
               69      Vir  Beta       32 (A1)      0.0908
               78      Vir  Beta       35 (A1)      0.1308
               82      Vir  Beta       37 (A1)      0.1533
               83      Vir  Beta       38 (A1)      0.1670
               101     Vir  Beta       46 (A1)      0.4905


 EOMEE transition 4/B2
 Total energy = -682.91517649 a.u.  Excitation energy = 202.8136 eV.
 R0^2 = 0.0000  R1^2 = 0.8474  R2_CCVV^2 = 0.0045  R2_COVV^2 = 0.0741  Res^2 = 2.60e-07
 Conv-d = yes

 Amplitude    Transitions between orbitals
  0.8917       7 (A1) A                  ->    5 (B2) A                   
  0.0939       7 (A1) A                  ->    13 (B2) A                  
  0.0755       7 (A1) A                  ->    6 (B2) A                   
  0.0748       7 (A1) A                  ->    16 (B2) A                  

              Summary of significant orbitals:

               Number  Type             Irrep      Energy
               10      Occ  Alpha       7 (A1)     -8.2530
               30      Vir  Alpha       5 (B2)     -0.1334
               35      Vir  Alpha       6 (B2)     -0.0655
               67      Vir  Alpha      13 (B2)      0.0732
               83      Vir  Alpha      16 (B2)      0.1606


 EOMEE transition 5/B2
 Total energy = -682.84657453 a.u.  Excitation energy = 204.6803 eV.
 R0^2 = 0.0000  R1^2 = 0.8327  R2_CCVV^2 = 0.0044  R2_COVV^2 = 0.0815  Res^2 = 8.18e-06
 Conv-d = yes

 Amplitude    Transitions between orbitals
 -0.6914       7 (A1) B                  ->    6 (B2) B                   
  0.4101       7 (A1) B                  ->    7 (B2) B                   
 -0.2130       7 (A1) B                  ->    4 (B2) B                   
 -0.1653       7 (A1) B                  ->    15 (B2) B                  
  0.1543       7 (A1) B                  ->    13 (B2) B                  
  0.1454       7 (A1) B                  ->    8 (B2) B                   
 -0.1420       7 (A1) B                  ->    5 (B2) B                   
 -0.1404       7 (A1) B                  ->    9 (B2) B                   
  0.1218       7 (A1) B                  ->    16 (B2) B                  

              Summary of significant orbitals:

               Number  Type             Irrep      Energy
               9       Occ  Beta        7 (A1)     -8.2530
               29      Vir  Beta        4 (B2)     -0.2432
               33      Vir  Beta        5 (B2)     -0.0663
               35      Vir  Beta        6 (B2)     -0.0569
               40      Vir  Beta        7 (B2)     -0.0379
               46      Vir  Beta        8 (B2)     -0.0220
               48      Vir  Beta        9 (B2)     -0.0187
               67      Vir  Beta       13 (B2)      0.0827
               73      Vir  Beta       15 (B2)      0.1073
               85      Vir  Beta       16 (B2)      0.1815


      CVS-EOM-CCSD/MP2 left amplitudes will be solved using Davidson.
        Amplitudes will be solved using MOM  algorithm.
     Hard-coded thresholds: 
     LinDepThresh=1.00e-15  NormThresh=1.00e-06  ReorthogonThresh=1.00e-02

      Roots     MaxVec    MaxIter   Precond   Conv      Shift    
      5         120       60        1         1.00e-05  7.28e+00  
 ------------------------------------------------------------------------------
      Iter ConvRoots NVecs ResNorm Current eigenvalues (eV)
 ------------------------------------------------------------------------------
      0    0      5     2.15e-02   198.3061   202.4225   202.6604   202.8136   204.6803   
      1    0      10    9.63e+01   198.3061   202.4225   202.6604   202.8136   204.6803   
      2    0      15    7.16e-02   198.3061   202.4225   202.6604   202.8136   204.6802   
      3    0      20    7.98e-03   198.3061   202.4225   202.6604   202.8136   204.6801   
      4    0      25    6.69e-04   198.3061   202.4225   202.6604   202.8136   204.6801   
      5    0      30    4.21e-05   198.3061   202.4225   202.6604   202.8136   204.6801   
      6    1      35    2.40e-05   198.3061   202.4225   202.6604*  202.8136   204.6801   
      7    4      39    2.18e-05   198.3061*  202.4225*  202.6604*  202.8136*  204.6800   
      8    5      40    5.46e-06   198.3061*  202.4225*  202.6604*  202.8136*  204.6800*  

     Davidson procedure converged

 CVS-EOMEE-CCSD calculation:   CPU 73437.11 s  wall 10631.75 s


 Start computing the transition properties

 ------------------------------------------------------------------------------
 State A: ccsd: 0/A1
 State B: cvs_eomee_ccsd/uhfref: 1/A1
 Transition dipole moment (a.u.):
   A->B: 0.006085 (X 0.000000, Y 0.000000, Z -0.006085)
   B->A: 0.005800 (X 0.000000, Y 0.000000, Z -0.005800)
 Oscillator strength (a.u.): 0.000171
 Norm of one-particle transition density matrix:
   A->B: 0.904843;   B->A: 0.922902
   ||gamma^AB||*||gamma^BA||: 0.835081

 ------------------------------------------------------------------------------
 State A: ccsd: 0/A1
 State B: cvs_eomee_ccsd/uhfref: 2/A1
 Transition dipole moment (a.u.):
   A->B: 0.002304 (X 0.000000, Y 0.000000, Z 0.002304)
   B->A: 0.002019 (X 0.000000, Y 0.000000, Z 0.002019)
 Oscillator strength (a.u.): 0.000023
 Norm of one-particle transition density matrix:
   A->B: 0.922181;   B->A: 0.933440
   ||gamma^AB||*||gamma^BA||: 0.860801

 ------------------------------------------------------------------------------
 State A: ccsd: 0/A1
 State B: cvs_eomee_ccsd/uhfref: 3/A1
 Transition dipole moment (a.u.):
   A->B: 0.006706 (X 0.000000, Y 0.000000, Z -0.006706)
   B->A: 0.006237 (X 0.000000, Y 0.000000, Z -0.006237)
 Oscillator strength (a.u.): 0.000208
 Norm of one-particle transition density matrix:
   A->B: 0.885023;   B->A: 0.904523
   ||gamma^AB||*||gamma^BA||: 0.800523

 ------------------------------------------------------------------------------
 State A: ccsd: 0/A1
 State B: cvs_eomee_ccsd/uhfref: 4/A1
 Transition dipole moment (a.u.):
   A->B: 0.014125 (X 0.000000, Y 0.000000, Z 0.014125)
   B->A: 0.013393 (X 0.000000, Y 0.000000, Z 0.013393)
 Oscillator strength (a.u.): 0.000942
 Norm of one-particle transition density matrix:
   A->B: 0.917515;   B->A: 0.925779
   ||gamma^AB||*||gamma^BA||: 0.849417

 ------------------------------------------------------------------------------
 State A: ccsd: 0/A1
 State B: cvs_eomee_ccsd/uhfref: 5/A1
 Transition dipole moment (a.u.):
   A->B: 0.009623 (X 0.000000, Y 0.000000, Z -0.009623)
   B->A: 0.009675 (X 0.000000, Y 0.000000, Z -0.009675)
 Oscillator strength (a.u.): 0.000466
 Norm of one-particle transition density matrix:
   A->B: 0.899919;   B->A: 0.888936
   ||gamma^AB||*||gamma^BA||: 0.799970

 ------------------------------------------------------------------------------
 State A: ccsd: 0/A1
 State B: cvs_eomee_ccsd/uhfref: 1/B1
 Transition dipole moment (a.u.):
   A->B: 0.017698 (X 0.017698, Y 0.000000, Z 0.000000)
   B->A: 0.017952 (X 0.017952, Y 0.000000, Z 0.000000)
 Oscillator strength (a.u.): 0.001575
 Norm of one-particle transition density matrix:
   A->B: 0.920786;   B->A: 0.931646
   ||gamma^AB||*||gamma^BA||: 0.857847

 ------------------------------------------------------------------------------
 State A: ccsd: 0/A1
 State B: cvs_eomee_ccsd/uhfref: 2/B1
 Transition dipole moment (a.u.):
   A->B: 0.037735 (X 0.037735, Y 0.000000, Z 0.000000)
   B->A: 0.037965 (X 0.037965, Y 0.000000, Z 0.000000)
 Oscillator strength (a.u.): 0.007114
 Norm of one-particle transition density matrix:
   A->B: 0.921811;   B->A: 0.930201
   ||gamma^AB||*||gamma^BA||: 0.857469

 ------------------------------------------------------------------------------
 State A: ccsd: 0/A1
 State B: cvs_eomee_ccsd/uhfref: 3/B1
 Transition dipole moment (a.u.):
   A->B: 0.002379 (X -0.002379, Y 0.000000, Z 0.000000)
   B->A: 0.002461 (X -0.002461, Y 0.000000, Z 0.000000)
 Oscillator strength (a.u.): 0.000029
 Norm of one-particle transition density matrix:
   A->B: 0.883361;   B->A: 0.893216
   ||gamma^AB||*||gamma^BA||: 0.789032

 ------------------------------------------------------------------------------
 State A: ccsd: 0/A1
 State B: cvs_eomee_ccsd/uhfref: 4/B1
 Transition dipole moment (a.u.):
   A->B: 0.002812 (X -0.002812, Y 0.000000, Z 0.000000)
   B->A: 0.002808 (X -0.002808, Y 0.000000, Z 0.000000)
 Oscillator strength (a.u.): 0.000040
 Norm of one-particle transition density matrix:
   A->B: 0.930341;   B->A: 0.913897
   ||gamma^AB||*||gamma^BA||: 0.850236

 ------------------------------------------------------------------------------
 State A: ccsd: 0/A1
 State B: cvs_eomee_ccsd/uhfref: 1/B2
 Transition dipole moment (a.u.):
   A->B: 0.006354 (X 0.000000, Y -0.006354, Z 0.000000)
   B->A: 0.006553 (X 0.000000, Y -0.006553, Z 0.000000)
 Oscillator strength (a.u.): 0.000202
 Norm of one-particle transition density matrix:
   A->B: 0.904154;   B->A: 0.922050
   ||gamma^AB||*||gamma^BA||: 0.833675

 ------------------------------------------------------------------------------
 State A: ccsd: 0/A1
 State B: cvs_eomee_ccsd/uhfref: 2/B2
 Transition dipole moment (a.u.):
   A->B: 0.009730 (X 0.000000, Y -0.009730, Z 0.000000)
   B->A: 0.010324 (X 0.000000, Y -0.010324, Z 0.000000)
 Oscillator strength (a.u.): 0.000498
 Norm of one-particle transition density matrix:
   A->B: 0.918909;   B->A: 0.930790
   ||gamma^AB||*||gamma^BA||: 0.855311

 ------------------------------------------------------------------------------
 State A: ccsd: 0/A1
 State B: cvs_eomee_ccsd/uhfref: 3/B2
 Transition dipole moment (a.u.):
   A->B: 0.037791 (X 0.000000, Y 0.037791, Z 0.000000)
   B->A: 0.037587 (X 0.000000, Y 0.037587, Z 0.000000)
 Oscillator strength (a.u.): 0.007053
 Norm of one-particle transition density matrix:
   A->B: 0.921100;   B->A: 0.929739
   ||gamma^AB||*||gamma^BA||: 0.856383

 ------------------------------------------------------------------------------
 State A: ccsd: 0/A1
 State B: cvs_eomee_ccsd/uhfref: 4/B2
 Transition dipole moment (a.u.):
   A->B: 0.014849 (X 0.000000, Y 0.014849, Z 0.000000)
   B->A: 0.014457 (X 0.000000, Y 0.014457, Z 0.000000)
 Oscillator strength (a.u.): 0.001067
 Norm of one-particle transition density matrix:
   A->B: 0.885534;   B->A: 0.902754
   ||gamma^AB||*||gamma^BA||: 0.799419

 ------------------------------------------------------------------------------
 State A: ccsd: 0/A1
 State B: cvs_eomee_ccsd/uhfref: 5/B2
 Transition dipole moment (a.u.):
   A->B: 0.009206 (X 0.000000, Y 0.009206, Z 0.000000)
   B->A: 0.009404 (X 0.000000, Y 0.009404, Z 0.000000)
 Oscillator strength (a.u.): 0.000434
 Norm of one-particle transition density matrix:
   A->B: 0.899096;   B->A: 0.888190
   ||gamma^AB||*||gamma^BA||: 0.798569


 All requested transition properties have been computed

 Transition Properties:   CPU 163.50 s  wall 32.13 s

 Total ccman2 time:   CPU 79391.11 s  wall 11464.81 s


 --------------------------------------------------------------
             Orbital Energies (a.u.) and Symmetries
 --------------------------------------------------------------

 Alpha MOs, Unrestricted
 -- Occupied --                  
-105.06  -11.58  -11.49  -11.48  -11.48  -11.46  -11.46  -10.79
  1 A1    2 A1    3 A1    1 B1    4 A1    2 B1    5 A1    6 A1                 
 -8.254  -8.253  -8.250  -1.435  -1.348  -1.254  -1.224  -1.061
  1 B2    7 A1    3 B1    8 A1    9 A1    4 B1   10 A1    5 B1                 
 -1.042  -0.925  -0.870  -0.860  -0.820  -0.808  -0.788  -0.731
 11 A1   12 A1    6 B1   13 A1    7 B1   14 A1    2 B2   15 A1                 
 -0.727  -0.690  -0.662  -0.583  -0.567
  8 B1    3 B2    9 B1    4 B2    1 A2                                         
 -- Virtual --                   
 -0.133  -0.086  -0.084  -0.069  -0.069  -0.065  -0.052  -0.050
  5 B2   16 A1    2 A2   10 B1   17 A1    6 B2   18 A1   19 A1                 
 -0.049  -0.045  -0.045  -0.032  -0.027  -0.026  -0.024  -0.023
 11 B1    3 A2    7 B2   20 A1   12 B1   21 A1   22 A1   13 B1                 
 -0.023  -0.022  -0.020  -0.018  -0.010  -0.008  -0.005  -0.004
  8 B2    4 A2    9 B2   23 A1   14 B1   24 A1   15 B1   25 A1                 
 -0.003   0.002   0.003   0.014   0.016   0.027   0.030   0.040
 10 B2   26 A1   16 B1   17 B1   27 A1   11 B2   28 A1   29 A1                 
  0.041   0.047   0.050   0.065   0.073   0.073   0.085   0.090
 12 B2    5 A2   18 B1   30 A1   31 A1   13 B2   19 B1   32 A1                 
  0.092   0.093   0.094   0.098   0.110   0.110   0.113   0.122
 20 B1    6 A2   14 B2   15 B2   21 B1   33 A1   22 B1   34 A1                 
  0.128   0.133   0.149   0.151   0.151   0.161   0.164   0.179
 35 A1   23 B1   36 A1   37 A1   24 B1   16 B2   38 A1   25 B1                 
  0.199   0.210   0.230   0.235   0.237   0.257   0.266   0.315
 26 B1   39 A1   40 A1   27 B1   41 A1   42 A1   28 B1   43 A1                 
  0.330   0.340   0.352   0.446   0.451   0.463   0.473   0.480
 29 B1   44 A1   30 B1   45 A1   31 B1   32 B1   17 B2   46 A1                 
  0.533   0.541   0.544   0.548   0.559   0.574   0.581   0.599
 47 A1   18 B2   33 B1   48 A1   34 B1   19 B2    7 A2   35 B1                 
  0.611   0.613   0.639   0.675   0.689   0.704   0.742   0.743
 49 A1   20 B2    8 A2   50 A1   21 B2   51 A1   36 B1   52 A1                 
  0.770   0.772   0.827   0.828   0.830   0.849   0.867   0.886
 53 A1   37 B1   22 B2   54 A1   38 B1   55 A1   56 A1   39 B1                 
  0.894   0.900   0.914   0.924   0.967   0.990   1.003   1.019
 40 B1   57 A1    9 A2   41 B1   58 A1   42 B1   10 A2   23 B2                 
  1.020   1.084   1.098   1.143   1.148   1.243   1.256   1.278
 59 A1   60 A1   11 A2   24 B2   12 A2   61 A1   43 B1   62 A1                 
  1.375   1.472   1.508   1.551   1.577   1.619   1.623   1.643
 25 B2   63 A1   44 B1   64 A1   45 B1   26 B2   13 A2   65 A1                 
  1.672   1.702   1.706   1.750   1.780   1.812   1.842   1.903
 27 B2   66 A1   46 B1   67 A1   47 B1   28 B2   14 A2   48 B1                 
  1.965   1.967   2.001   2.010   2.028   2.034   2.052   2.097
 68 A1   15 A2   29 B2   49 B1   69 A1   50 B1   30 B2   70 A1                 
  2.136   2.174   2.176   2.335   2.367   2.404   2.408   2.529
 51 B1   16 A2   71 A1   31 B2   52 B1   17 A2   32 B2   72 A1                 
  2.529   2.590   2.610   2.622   2.647   2.725   2.760   2.801
 53 B1   54 B1   73 A1   74 A1   55 B1   75 A1   76 A1   77 A1                 
  2.819   2.832   2.838   2.847   2.853   2.952   2.972   2.979
 56 B1   33 B2   78 A1   79 A1   57 B1   34 B2   80 A1   18 A2                 
  2.991   3.036   3.080   3.118   3.237   3.310   3.409   3.476
 58 B1   35 B2   19 A2   59 B1   36 B2   60 B1   81 A1   61 B1                 
  3.579   3.698   3.709   3.770   3.936   4.185   4.216   4.297
 82 A1   83 A1   62 B1   84 A1   85 A1   63 B1   86 A1   87 A1                 
  4.307   4.898   5.008   5.215   5.217   5.473   5.582   5.937
 64 B1   88 A1   65 B1   66 B1   89 A1   90 A1   67 B1   91 A1                 
  9.422   9.497   9.581  10.241  20.384  20.459  20.495  20.579
 37 B2   68 B1   92 A1   93 A1   94 A1   95 A1   69 B1   96 A1                 
 20.645  20.893  32.797  32.855  32.929  79.950  80.032  80.068
 70 B1   97 A1   38 B2   71 B1   98 A1   99 A1  100 A1   72 B1                 
 80.138  80.198  80.383 106.665 106.710 106.771 115.862 321.788
101 A1   73 B1  102 A1   39 B2   74 B1  103 A1  104 A1  105 A1                 
321.870 321.905 321.963 322.015 322.164 364.762 364.797 364.846
106 A1   75 B1  107 A1   76 B1  108 A1   40 B2   77 B1  109 A1                 
610.1851431.3561431.4351431.4671431.5141431.5601431.6841551.414
110 A1  111 A1  112 A1   78 B1  113 A1   79 B1  114 A1   41 B2                 
*******1551.4732284.9268391.7038749.5908749.6688749.6968749.732
 80 B1  115 A1  116 A1  117 A1  118 A1  119 A1   81 B1  120 A1                 
*******8749.871****************
 82 B1  121 A1  122 A1  123 A1                                                 

 Beta MOs, Unrestricted
 -- Occupied --                  
-105.06  -11.57  -11.47  -11.47  -11.47  -11.46  -11.46  -10.78
  1 A1    2 A1    3 A1    1 B1    4 A1    2 B1    5 A1    6 A1                 
 -8.253  -8.249  -8.246  -1.411  -1.336  -1.254  -1.181  -1.054
  7 A1    3 B1    1 B2    8 A1    9 A1    4 B1   10 A1    5 B1                 
 -1.027  -0.918  -0.865  -0.854  -0.820  -0.799  -0.729  -0.723
 11 A1   12 A1    6 B1   13 A1    7 B1   14 A1   15 A1    8 B1                 
 -0.713  -0.657  -0.638  -0.574
  2 B2    9 B1    3 B2    1 A2                                                 
 -- Virtual --                   
 -0.243  -0.086  -0.069  -0.068  -0.066  -0.064  -0.057  -0.052
  4 B2   16 A1   10 B1   17 A1    5 B2    2 A2    6 B2   18 A1                 
 -0.050  -0.049  -0.045  -0.038  -0.032  -0.027  -0.026  -0.024
 19 A1   11 B1    3 A2    7 B2   20 A1   12 B1   21 A1   22 A1                 
 -0.023  -0.022  -0.020  -0.019  -0.017  -0.011  -0.008  -0.005
 13 B1    8 B2    4 A2    9 B2   23 A1   14 B1   24 A1   15 B1                 
 -0.003  -0.003   0.003   0.003   0.014   0.019   0.026   0.033
 10 B2   25 A1   16 B1   26 A1   17 B1   27 A1   11 B2   28 A1                 
  0.044   0.047   0.050   0.054   0.066   0.075   0.083   0.085
 29 A1    5 A2   18 B1   12 B2   30 A1   31 A1   13 B2   19 B1                 
  0.091   0.092   0.097   0.100   0.107   0.109   0.112   0.114
 32 A1   20 B1    6 A2   14 B2   15 B2   21 B1   33 A1   22 B1                 
  0.123   0.131   0.133   0.151   0.151   0.153   0.167   0.179
 34 A1   35 A1   23 B1   36 A1   24 B1   37 A1   38 A1   25 B1                 
  0.182   0.199   0.214   0.231   0.238   0.247   0.263   0.268
 16 B2   26 B1   39 A1   40 A1   27 B1   41 A1   42 A1   28 B1                 
  0.317   0.330   0.344   0.352   0.448   0.453   0.465   0.481
 43 A1   29 B1   44 A1   30 B1   45 A1   31 B1   32 B1   17 B2                 
  0.491   0.534   0.548   0.556   0.561   0.564   0.584   0.600
 46 A1   47 A1   33 B1   18 B2   34 B1   48 A1    7 A2   35 B1                 
  0.608   0.615   0.638   0.644   0.683   0.701   0.706   0.744
 19 B2   49 A1    8 A2   20 B2   50 A1   21 B2   51 A1   36 B1                 
  0.746   0.773   0.777   0.830   0.832   0.847   0.853   0.873
 52 A1   37 B1   53 A1   38 B1   54 A1   22 B2   55 A1   56 A1                 
  0.886   0.896   0.907   0.926   0.930   0.973   0.995   1.024
 39 B1   40 B1   57 A1   41 B1    9 A2   58 A1   42 B1   59 A1                 
  1.028   1.029   1.093   1.100   1.159   1.167   1.254   1.257
 10 A2   23 B2   60 A1   11 A2   24 B2   12 A2   61 A1   43 B1                 
  1.281   1.392   1.481   1.509   1.560   1.578   1.623   1.634
 62 A1   25 B2   63 A1   44 B1   64 A1   45 B1   26 B2   13 A2                 
  1.648   1.686   1.700   1.712   1.762   1.788   1.818   1.842
 65 A1   27 B2   46 B1   66 A1   67 A1   47 B1   28 B2   14 A2                 
  1.903   1.967   1.986   2.008   2.009   2.033   2.037   2.066
 48 B1   68 A1   15 A2   29 B2   49 B1   50 B1   69 A1   30 B2                 
  2.102   2.141   2.177   2.187   2.344   2.369   2.414   2.418
 70 A1   51 B1   16 A2   71 A1   31 B2   52 B1   17 A2   32 B2                 
  2.531   2.534   2.591   2.611   2.623   2.647   2.726   2.763
 53 B1   72 A1   54 B1   73 A1   74 A1   55 B1   75 A1   76 A1                 
  2.801   2.819   2.838   2.848   2.850   2.853   2.973   2.975
 77 A1   56 B1   78 A1   79 A1   33 B2   57 B1   34 B2   80 A1                 
  2.983   2.992   3.063   3.080   3.118   3.247   3.314   3.414
 18 A2   58 B1   35 B2   19 A2   59 B1   36 B2   60 B1   81 A1                 
  3.481   3.580   3.700   3.709   3.772   3.942   4.186   4.222
 61 B1   82 A1   83 A1   62 B1   84 A1   85 A1   63 B1   86 A1                 
  4.298   4.312   4.902   5.014   5.218   5.224   5.482   5.583
 87 A1   64 B1   88 A1   65 B1   66 B1   89 A1   90 A1   67 B1                 
  5.940   9.428   9.498   9.581  10.244  20.388  20.461  20.495
 91 A1   37 B2   68 B1   92 A1   93 A1   94 A1   95 A1   69 B1                 
 20.583  20.644  20.895  32.801  32.856  32.929  79.951  80.033
 96 A1   70 B1   97 A1   38 B2   71 B1   98 A1   99 A1  100 A1                 
 80.068  80.139  80.197  80.384 106.667 106.711 106.772 115.863
 72 B1  101 A1   73 B1  102 A1   39 B2   74 B1  103 A1  104 A1                 
321.789 321.870 321.905 321.963 322.015 322.164 364.764 364.798
105 A1  106 A1   75 B1  107 A1   76 B1  108 A1   40 B2   77 B1                 
364.846 610.1851431.3561431.4351431.4671431.5141431.5601431.684
109 A1  110 A1  111 A1  112 A1   78 B1  113 A1   79 B1  114 A1                 
*******1551.4381551.4732284.9278391.7038749.5908749.6688749.696
 41 B2   80 B1  115 A1  116 A1  117 A1  118 A1  119 A1   81 B1                 
*******8749.7728749.871****************
120 A1   82 B1  121 A1  122 A1  123 A1                                         
 --------------------------------------------------------------

          Ground-State Mulliken Net Atomic Charges

     Atom                 Charge (a.u.)    Spin (a.u.)
  --------------------------------------------------------
      1 H                     0.276719      -0.029397
      2 C                    -0.388713       0.246569
      3 C                    -0.310677      -0.409893
      4 H                     0.310055       0.019671
      5 C                    -0.207344       0.821267
      6 H                     0.285419      -0.050632
      7 C                    -0.310677      -0.409893
      8 H                     0.310055       0.019671
      9 C                    -0.388713       0.246569
     10 H                     0.276719      -0.029397
     11 C                     0.269627       0.445314
     12 Cl                    0.877530       0.130151
  --------------------------------------------------------
  Sum of atomic charges =     1.000000
  Sum of spin   charges =     1.000000

 -----------------------------------------------------------------
                    Cartesian Multipole Moments
 -----------------------------------------------------------------
    Charge (ESU x 10^10)
                 4.8032
    Dipole Moment (Debye)
         X      -0.0000      Y      -0.0000      Z      -3.1775
       Tot       3.1775
    Quadrupole Moments (Debye-Ang)
        XX     -33.1018     XY       0.0000     YY     -47.6749
        XZ       0.0000     YZ       0.0000     ZZ     -26.0865
    Octopole Moments (Debye-Ang^2)
       XXX      -0.0000    XXY      -0.0000    XYY      -0.0000
       YYY      -0.0000    XXZ      -7.4458    XYZ      -0.0000
       YYZ       5.8432    XZZ      -0.0000    YZZ      -0.0000
       ZZZ     -15.6244
    Hexadecapole Moments (Debye-Ang^3)
      XXXX    -231.8686   XXXY       0.0000   XXYY     -64.1995
      XYYY       0.0000   YYYY     -52.6269   XXXZ       0.0000
      XXYZ       0.0000   XYYZ       0.0000   YYYZ       0.0000
      XXZZ    -148.3688   XYZZ       0.0000   YYZZ    -141.5285
      XZZZ       0.0000   YZZZ       0.0000   ZZZZ    -586.6525
 -----------------------------------------------------------------
Archival summary:
1\1\node20\SP\ProcedureUnspecified\BasisUnspecified\l165(1+,2)\krylov\MonOct1507:24:082018MonOct1507:24:082018\0\\#,ProcedureUnspecified,BasisUnspecified,\\1,2\Cl\C,1,1.67234\C,2,1.42621,1,119.028\H,3,1.07964,2,119.225,1,0,0\C,3,1.36913,2,118.571,1,180,0\H,5,1.07947,3,120.589,2,180,0\C,5,1.41607,3,119.655,2,0,0\H,7,1.08121,5,119.198,3,-180,0\C,7,1.41607,5,121.603,3,-0,0\H,9,1.07947,7,119.756,5,-180,0\C,9,1.36913,7,119.655,5,0,0\H,11,1.07964,9,122.204,7,180,0\\HF=-689.393565\\@

 Total job time:  11528.83s(wall), 79650.55s(cpu) 
 Mon Oct 15 07:24:08 2018

        *************************************************************
        *                                                           *
        *  Thank you very much for using Q-Chem.  Have a nice day.  *
        *                                                           *
        *************************************************************


