annas-macbook-pro-3.local 10.63.18
Q-Chem Developer Version! Running on 10.63.18.*
                  Welcome to Q-Chem
     A Quantum Leap Into The Future Of Chemistry


 Q-Chem 5.1, Q-Chem, Inc., Pleasanton, CA (2018)

 Yihan Shao,  Zhengting Gan,  E. Epifanovsky,  A. T. B. Gilbert,  M. Wormit,  
 J. Kussmann,  A. W. Lange,  A. Behn,  Jia Deng,  Xintian Feng,  D. Ghosh,  
 M. Goldey,  P. R. Horn,  L. D. Jacobson,  I. Kaliman,  T. Kus,  A. Landau,  
 Jie Liu,  E. I. Proynov,  R. M. Richard,  R. P. Steele,  E. J. Sundstrom,  
 H. L. Woodcock III,  P. M. Zimmerman,  D. Zuev,  B. Albrecht,  E. Alguire,  
 S. A. Baeppler,  D. Barton,  Z. Benda,  Y. A. Bernard,  E. J. Berquist,  
 K. B. Bravaya,  H. Burton,  D. Casanova,  Chun-Min Chang,  Yunqing Chen,  
 A. Chien,  K. D. Closser,  M. P. Coons,  S. Coriani,  S. Dasgupta,  
 A. L. Dempwolff,  M. Diedenhofen,  Hainam Do,  R. G. Edgar,  Po-Tung Fang,  
 S. Faraji,  S. Fatehi,  Qingguo Feng,  K. D. Fenk,  J. Fosso-Tande,  
 Qinghui Ge,  A. Ghysels,  G. Gidofalvi,  J. Gomes,  J. Gonthier,  A. Gunina,  
 M. W. D. Hanson-Heine,  P. H. P. Harbach,  A. W. Hauser,  J. E. Herr,  
 E. G. Hohenstein,  Z. C. Holden,  Kerwin Hui,  T.-C. Jagau,  Hyunjun Ji,  
 B. Kaduk,  K. Khistyaev,  Jaehoon Kim,  P. Klunzinger,  K. Koh,  
 D. Kosenkov,  L. Koulias,  T. Kowalczyk,  C. M. Krauter,  A. Kunitsa,  
 Ka Un Lao,  A. Laurent,  K. V. Lawler,  Joonho Lee,  D. Lefrancois,  
 S. Lehtola,  D. S. Levine,  Yi-Pei Li,  You-Sheng Lin,  Fenglai Liu,  
 E. Livshits,  A. Luenser,  P. Manohar,  E. Mansoor,  S. F. Manzer,  
 Shan-Ping Mao,  Yuezhi Mao,  N. Mardirossian,  A. V. Marenich,  
 T. Markovich,  L. A. Martinez-Martinez,  S. A. Maurer,  N. J. Mayhall,  
 S. C. McKenzie,  J.-M. Mewes,  A. F. Morrison,  J. W. Mullinax,  K. Nanda,  
 T. S. Nguyen-Beck,  R. Olivares-Amaya,  J. A. Parkhill,  T. M. Perrine,  
 F. Plasser,  P. Pokhilko,  S. Prager,  A. Prociuk,  E. Ramos,  D. R. Rehn,  
 F. Rob,  M. Schneider,  N. Sergueev,  S. M. Sharada,  S. Sharma,  
 D. W. Small,  T. Stauch,  T. Stein,  Yu-Chuan Su,  A. J. W. Thom,  
 A. Tkatchenko,  T. Tsuchimochi,  N. M. Tubman,  L. Vogt,  M. L. Vidal,  
 O. Vydrov,  M. A. Watson,  J. Wenzel,  M. de Wergifosse,  T. A. Wesolowski,  
 A. White,  J. Witte,  A. Yamada,  Jun Yang,  K. Yao,  S. Yeganeh,  
 S. R. Yost,  Zhi-Qiang You,  A. Zech,  Igor Ying Zhang,  Xing Zhang,  
 Yan Zhao,  Ying Zhu,  B. R. Brooks,  G. K. L. Chan,  C. J. Cramer,  
 M. S. Gordon,  W. J. Hehre,  A. Klamt,  M. W. Schmidt,  C. D. Sherrill,  
 D. G. Truhlar,  A. Aspuru-Guzik,  R. Baer,  A. T. Bell,  N. A. Besley,  
 Jeng-Da Chai,  R. A. DiStasio Jr.,  A. Dreuw,  B. D. Dunietz,  
 T. R. Furlani,  Chao-Ping Hsu,  Yousung Jung,  Jing Kong,  D. S. Lambrecht,  
 WanZhen Liang,  C. Ochsenfeld,  V. A. Rassolov,  L. V. Slipchenko,  
 J. E. Subotnik,  T. Van Voorhis,  J. M. Herbert,  A. I. Krylov,  
 P. M. W. Gill,  M. Head-Gordon

 Contributors to earlier versions of Q-Chem not listed above: 
 R. D. Adamson,  B. Austin,  J. Baker,  G. J. O. Beran,  K. Brandhorst,  
 S. T. Brown,  E. F. C. Byrd,  A. K. Chakraborty,  C.-L. Cheng,  
 Siu Hung Chien,  D. M. Chipman,  D. L. Crittenden,  H. Dachsel,  
 R. J. Doerksen,  A. D. Dutoi,  L. Fusti-Molnar,  W. A. Goddard III,  
 A. Golubeva-Zadorozhnaya,  S. R. Gwaltney,  G. Hawkins,  A. Heyden,  
 S. Hirata,  G. Kedziora,  F. J. Keil,  C. Kelley,  Jihan Kim,  R. A. King,  
 R. Z. Khaliullin,  P. P. Korambath,  W. Kurlancheek,  A. M. Lee,  M. S. Lee,  
 S. V. Levchenko,  Ching Yeh Lin,  D. Liotard,  R. C. Lochan,  I. Lotan,  
 P. E. Maslen,  N. Nair,  D. P. O'Neill,  D. Neuhauser,  E. Neuscamman,  
 C. M. Oana,  R. Olson,  B. Peters,  R. Peverati,  P. A. Pieniazek,  
 Y. M. Rhee,  J. Ritchie,  M. A. Rohrdanz,  E. Rosta,  N. J. Russ,  
 H. F. Schaefer III,  N. E. Schultz,  N. Shenvi,  A. C. Simmonett,  A. Sodt,  
 D. Stuck,  K. S. Thanthiriwatte,  V. Vanovschi,  Tao Wang,  A. Warshel,  
 C. F. Williams,  Q. Wu,  X. Xu,  W. Zhang

 Please cite Q-Chem as follows:
 Y. Shao et al., Mol. Phys. 113, 184-215 (2015)
 DOI: 10.1080/00268976.2014.952696

 Q-Chem 5.1.0 for Mac (Intel) OS X

 Parts of Q-Chem use Armadillo 8.300.2 (Tropical Shenanigans).
 http://arma.sourceforge.net/

 Q-Chem begins on Thu Sep  6 04:42:18 2018  

Annas-MacBook-Pro-3.local
Host: 0

     Scratch files written to /scratch/qchem47114//
Processing $rem in /Users/annakrylov/.qchemrc.
CC_MEMORY  4000
Core orbitals will be frozen

Checking the input file for inconsistencies... 	...done.

--------------------------------------------------------------
User input:
--------------------------------------------------------------
$comment
Optimized Cl-Bz, XAS
$end

$molecule
0 1
 H        -2.1400320233    0.0000000000    0.5090177858
 C        -1.2120583232    0.0000000000   -0.0442490642
 C        -1.2042956497    0.0000000000   -1.4361358281
 H        -2.1437187877    0.0000000000   -1.9716770234
 C         0.0000000000    0.0000000000   -2.1351330277
 H         0.0000000000    0.0000000000   -3.2159870334
 C         1.2042956497    0.0000000000   -1.4361358281
 H         2.1437187877    0.0000000000   -1.9716770234
 C         1.2120583232    0.0000000000   -0.0442490642
 H         2.1400320233    0.0000000000    0.5090177858
 C         0.0000000000    0.0000000000    0.6386615242
 Cl        0.0000000000    0.0000000000    2.3695929760
$end

$rem
   JOB_TYPE  =  SP
   BASIS  =  aug-cc-pVDZ
   METHOD  =  EOM-CCSD
   CVS_EE_STATES = [4,4,4,4]
!   CC_MEMORY = 80000
$end

--------------------------------------------------------------
 ----------------------------------------------------------------
             Standard Nuclear Orientation (Angstroms)
    I     Atom           X                Y                Z
 ----------------------------------------------------------------
    1      H      -2.1400320233     0.0000000000     0.3814604176
    2      C      -1.2120583232     0.0000000000    -0.1718064324
    3      C      -1.2042956497     0.0000000000    -1.5636931963
    4      H      -2.1437187877     0.0000000000    -2.0992343916
    5      C      -0.0000000000     0.0000000000    -2.2626903959
    6      H      -0.0000000000     0.0000000000    -3.3435444016
    7      C       1.2042956497     0.0000000000    -1.5636931963
    8      H       2.1437187877     0.0000000000    -2.0992343916
    9      C       1.2120583232    -0.0000000000    -0.1718064324
   10      H       2.1400320233    -0.0000000000     0.3814604176
   11      C       0.0000000000    -0.0000000000     0.5111041560
   12      Cl      0.0000000000    -0.0000000000     2.2420356078
 ----------------------------------------------------------------
 Molecular Point Group                 C2v   NOp =  4
 Largest Abelian Subgroup              C2v   NOp =  4
 Nuclear Repulsion Energy =   316.4076139427 hartrees
 There are       29 alpha and       29 beta electrons
 Requested basis set is aug-cc-pVDZ
 There are 90 shells and 210 basis functions
MEM_TOTAL is adjusted to CC_MEMORY + MEM_STATIC!
 Total memory of 4192MB is distributed as follows: 
   QALLOC including MEM_STATIC uses 192MB
   MEM_STATIC is set to 192MB
   CCMAN JOB total memory use is  4000MB
 Warning: actual memory use might exceed 4192MB

 Total QAlloc Memory Limit    192 MB
 Mega-Array Size       188 MB
 MEM_STATIC part       192 MB

                       Distance Matrix (Angstroms)
             H (  1)   C (  2)   C (  3)   H (  4)   C (  5)   H (  6)
   C (  2)  1.080389
   C (  3)  2.158524  1.391908
   H (  4)  2.480698  2.140787  1.081351
   C (  5)  3.401657  2.416791  1.392453  2.149941
   H (  6)  4.295975  3.395439  2.148999  2.478677  1.080854
   C (  7)  3.868869  2.788569  2.408591  3.390576  1.392453  2.148999
   H (  8)  4.950189  3.869912  3.390576  4.287438  2.149941  2.478677
   C (  9)  3.397442  2.424117  2.788569  3.869912  2.416791  3.395439
   H ( 10)  4.280064  3.397442  3.868869  4.950189  3.401657  4.295975
   C ( 11)  2.143955  1.391205  2.398981  3.377780  2.773795  3.854649
   Cl( 12)  2.835750  2.701059  3.991729  4.841710  4.504726  5.585580
             C (  7)   H (  8)   C (  9)   H ( 10)   C ( 11)
   H (  8)  1.081351
   C (  9)  1.391908  2.140787
   H ( 10)  2.158524  2.480698  1.080389
   C ( 11)  2.398981  3.377780  1.391205  2.143955
   Cl( 12)  3.991729  4.841710  2.701059  2.835750  1.730931

 A cutoff of  1.0D-14 yielded   4083 shell pairs
 There are     22321 function pairs (     25433 Cartesian)
 Smallest overlap matrix eigenvalue = 2.25E-06

 Scale SEOQF with 1.000000e-01/1.000000e-01/1.000000e-01

 Standard Electronic Orientation quadrupole field applied
 Nucleus-field energy     =    -0.0000000161 hartrees
 Guess from superposition of atomic densities
 Warning:  Energy on first SCF cycle will be non-variational
 SAD guess density has 58.000000 electrons

 -----------------------------------------------------------------------
  General SCF calculation program by
  Eric Jon Sundstrom, Paul Horn, Yuezhi Mao, Dmitri Zuev, Alec White,
  David Stuck, Shaama M.S., Shane Yost, Joonho Lee, David Small,
  Daniel Levine, Susi Lehtola, Hugh Burton, Evgeny Epifanovsky
 -----------------------------------------------------------------------
 Hartree-Fock
 A restricted SCF calculation will be
 performed using DIIS
 SCF converges when DIIS error is below 1.0e-08
 ---------------------------------------
  Cycle       Energy         DIIS error
 ---------------------------------------
    1    -692.4629184719      4.44e-02  
    2    -689.5698482167      3.11e-03  
    3    -689.6378436859      1.37e-03  
    4    -689.6477233147      6.08e-04  
    5    -689.6503814881      1.09e-04  
    6    -689.6504743690      3.29e-05  
    7    -689.6504888340      1.18e-05  
    8    -689.6504913305      5.00e-06  
    9    -689.6504919030      2.04e-06  
   10    -689.6504919921      9.35e-07  
   11    -689.6504920278      3.38e-07  
   12    -689.6504920110      8.71e-08  
   13    -689.6504920685      2.46e-08  
   14    -689.6504920051      1.17e-08  
   15    -689.6504920642      1.07e-08  
   16    -689.6504919989      8.97e-09  Convergence criterion met
 ---------------------------------------
 SCF time:   CPU 168.71s  wall 169.00s 
 SCF   energy in the final basis set =     -689.6504919989


 ------------------------------------------------------------------------------

   CCMAN2: suite of methods based on coupled cluster
           and equation of motion theories.

   Components:
   * libvmm-1.3-trunk
     by Evgeny Epifanovsky, Ilya Kaliman.
   * libtensor-2.5-trunk
     by Evgeny Epifanovsky, Michael Wormit, Dmitry Zuev, Sam Manzer, 
        Ilya Kaliman.
   * libcc-2.5-trunk
     by Evgeny Epifanovsky, Arik Landau, Tomasz Kus, Kirill Khistyaev, 
        Dmitry Zuev, Prashant Manohar, Xintian Feng, Anna Krylov, 
        Matthew Goldey, Alec White, Thomas Jagau, Kaushik Nanda, 
        Anastasia Gunina, Alexander Kunitsa, Joonho Lee.

   CCMAN original authors:
   Anna I. Krylov, C. David Sherrill, Steven R. Gwaltney,
   Edward F. C. Byrd (2000)
   Sergey V. Levchenko, Lyudmila V. Slipchenko, Tao Wang,
   Ana-Maria C. Cristian (2003)
   Piotr A. Pieniazek, C. Melania Oana, Evgeny Epifanovsky (2007)
   Prashant Manohar (2009)

 ------------------------------------------------------------------------------


 Calculation will run on 2 cores with 4000MB of RAM.


 Alpha MOs, Restricted
 -- Occupied --                  
-104.84  -11.31  -11.26  -11.26  -11.26  -11.26  -11.25  -10.57
  1 A1    2 A1    3 A1    1 B1    4 A1    2 B1    5 A1    6 A1                 
 -8.034  -8.031  -8.031  -1.197  -1.125  -1.036  -1.001  -0.850
  7 A1    3 B1    1 B2    8 A1    9 A1    4 B1   10 A1    5 B1                 
 -0.823  -0.714  -0.651  -0.650  -0.606  -0.592  -0.547  -0.518
 11 A1   12 A1   13 A1    6 B1    7 B1   14 A1    2 B2    8 B1                 
 -0.514  -0.471  -0.456  -0.353  -0.337
 15 A1    3 B2    9 B1    1 A2    4 B2                                         
 -- Virtual --                   
  0.033   0.040   0.046   0.059   0.063   0.093   0.096   0.098
 16 A1   10 B1   17 A1   11 B1   18 A1    5 B2    2 A2   19 A1                 
  0.118   0.119   0.132   0.138   0.144   0.144   0.146   0.149
  6 B2   20 A1   12 B1    3 A2   21 A1   13 B1    7 B2   22 A1                 
  0.160   0.162   0.172   0.179   0.179   0.181   0.192   0.192
 23 A1   14 B1   24 A1   15 B1    8 B2   25 A1   16 B1    4 A2                 
  0.202   0.205   0.218   0.222   0.264   0.268   0.288   0.297
  9 B2   10 B2   26 A1   17 B1   27 A1   18 B1   28 A1   29 A1                 
  0.303   0.325   0.327   0.333   0.334   0.354   0.356   0.359
 19 B1   20 B1   30 A1   11 B2   31 A1   32 A1   12 B2   21 B1                 
  0.380   0.382   0.401   0.404   0.416   0.416   0.429   0.435
 33 A1   22 B1   34 A1   23 B1   35 A1    5 A2   36 A1   24 B1                 
  0.446   0.463   0.468   0.499   0.512   0.536   0.561   0.567
 13 B2    6 A2   25 B1    7 A2   37 A1   14 B2   38 A1   26 B1                 
  0.571   0.579   0.581   0.585   0.599   0.613   0.640   0.641
 39 A1   27 B1   40 A1   15 B2    8 A2   41 A1   42 A1   16 B2                 
  0.642   0.668   0.671   0.674   0.677   0.683   0.703   0.713
 28 B1   43 A1   29 B1   44 A1   17 B2   30 B1   45 A1   31 B1                 
  0.733   0.735   0.762   0.763   0.766   0.771   0.796   0.807
 46 A1    9 A2   47 A1   10 A2   32 B1   18 B2   33 B1   48 A1                 
  0.839   0.840   0.855   0.858   0.883   0.900   0.902   0.915
 34 B1   19 B2   49 A1   35 B1   36 B1   50 A1   20 B2   11 A2                 
  0.931   0.940   0.946   0.966   0.968   0.978   0.979   0.988
 12 A2   21 B2   22 B2   23 B2   51 A1   52 A1   37 B1   13 A2                 
  1.006   1.037   1.066   1.093   1.123   1.132   1.148   1.170
 53 A1   54 A1   14 A2   55 A1   24 B2   38 B1   39 B1   40 B1                 
  1.199   1.213   1.276   1.346   1.414   1.420   1.431   1.472
 15 A2   25 B2   56 A1   41 B1   26 B2   16 A2   57 A1   58 A1                 
  1.474   1.477   1.480   1.482   1.520   1.546   1.553   1.555
 17 A2   42 B1   59 A1   27 B2   43 B1   60 A1   44 B1   61 A1                 
  1.600   1.601   1.608   1.624   1.640   1.648   1.649   1.659
 28 B2   45 B1   62 A1   63 A1   64 A1   46 B1   65 A1   47 B1                 
  1.698   1.706   1.708   1.740   1.774   1.776   1.825   1.878
 18 A2   19 A2   29 B2   30 B2   48 B1   66 A1   49 B1   67 A1                 
  1.885   1.898   1.931   1.936   1.941   1.955   1.956   2.016
 20 A2   68 A1   31 B2   50 B1   69 A1   51 B1   70 A1   32 B2                 
  2.036   2.043   2.095   2.111   2.113   2.126   2.185   2.194
 71 A1   52 B1   33 B2   53 B1   21 A2   72 A1   34 B2   22 A2                 
  2.198   2.241   2.270   2.274   2.288   2.333   2.335   2.364
 73 A1   54 B1   74 A1   55 B1   35 B2   56 B1   75 A1   23 A2                 
  2.381   2.413   2.443   2.608   2.629   2.709   2.784   2.801
 76 A1   57 B1   77 A1   24 A2   36 B2   58 B1   78 A1   79 A1                 
  2.806   2.914   2.925   2.965   3.109   3.128   3.171   3.182
 59 B1   60 B1   80 A1   81 A1   82 A1   61 B1   62 B1   83 A1                 
  3.335   3.429   3.590   3.820   4.570
 63 B1   84 A1   64 B1   85 A1   86 A1                                         

 Beta MOs, Restricted
 -- Occupied --                  
-104.84  -11.31  -11.26  -11.26  -11.26  -11.26  -11.25  -10.57
  1 A1    2 A1    3 A1    1 B1    4 A1    2 B1    5 A1    6 A1                 
 -8.034  -8.031  -8.031  -1.197  -1.125  -1.036  -1.001  -0.850
  7 A1    3 B1    1 B2    8 A1    9 A1    4 B1   10 A1    5 B1                 
 -0.823  -0.714  -0.651  -0.650  -0.606  -0.592  -0.547  -0.518
 11 A1   12 A1   13 A1    6 B1    7 B1   14 A1    2 B2    8 B1                 
 -0.514  -0.471  -0.456  -0.353  -0.337
 15 A1    3 B2    9 B1    1 A2    4 B2                                         
 -- Virtual --                   
  0.033   0.040   0.046   0.059   0.063   0.093   0.096   0.098
 16 A1   10 B1   17 A1   11 B1   18 A1    5 B2    2 A2   19 A1                 
  0.118   0.119   0.132   0.138   0.144   0.144   0.146   0.149
  6 B2   20 A1   12 B1    3 A2   21 A1   13 B1    7 B2   22 A1                 
  0.160   0.162   0.172   0.179   0.179   0.181   0.192   0.192
 23 A1   14 B1   24 A1   15 B1    8 B2   25 A1   16 B1    4 A2                 
  0.202   0.205   0.218   0.222   0.264   0.268   0.288   0.297
  9 B2   10 B2   26 A1   17 B1   27 A1   18 B1   28 A1   29 A1                 
  0.303   0.325   0.327   0.333   0.334   0.354   0.356   0.359
 19 B1   20 B1   30 A1   11 B2   31 A1   32 A1   12 B2   21 B1                 
  0.380   0.382   0.401   0.404   0.416   0.416   0.429   0.435
 33 A1   22 B1   34 A1   23 B1   35 A1    5 A2   36 A1   24 B1                 
  0.446   0.463   0.468   0.499   0.512   0.536   0.561   0.567
 13 B2    6 A2   25 B1    7 A2   37 A1   14 B2   38 A1   26 B1                 
  0.571   0.579   0.581   0.585   0.599   0.613   0.640   0.641
 39 A1   27 B1   40 A1   15 B2    8 A2   41 A1   42 A1   16 B2                 
  0.642   0.668   0.671   0.674   0.677   0.683   0.703   0.713
 28 B1   43 A1   29 B1   44 A1   17 B2   30 B1   45 A1   31 B1                 
  0.733   0.735   0.762   0.763   0.766   0.771   0.796   0.807
 46 A1    9 A2   47 A1   10 A2   32 B1   18 B2   33 B1   48 A1                 
  0.839   0.840   0.855   0.858   0.883   0.900   0.902   0.915
 34 B1   19 B2   49 A1   35 B1   36 B1   50 A1   20 B2   11 A2                 
  0.931   0.940   0.946   0.966   0.968   0.978   0.979   0.988
 12 A2   21 B2   22 B2   23 B2   51 A1   52 A1   37 B1   13 A2                 
  1.006   1.037   1.066   1.093   1.123   1.132   1.148   1.170
 53 A1   54 A1   14 A2   55 A1   24 B2   38 B1   39 B1   40 B1                 
  1.199   1.213   1.276   1.346   1.414   1.420   1.431   1.472
 15 A2   25 B2   56 A1   41 B1   26 B2   16 A2   57 A1   58 A1                 
  1.474   1.477   1.480   1.482   1.520   1.546   1.553   1.555
 17 A2   42 B1   59 A1   27 B2   43 B1   60 A1   44 B1   61 A1                 
  1.600   1.601   1.608   1.624   1.640   1.648   1.649   1.659
 28 B2   45 B1   62 A1   63 A1   64 A1   46 B1   65 A1   47 B1                 
  1.698   1.706   1.708   1.740   1.774   1.776   1.825   1.878
 18 A2   19 A2   29 B2   30 B2   48 B1   66 A1   49 B1   67 A1                 
  1.885   1.898   1.931   1.936   1.941   1.955   1.956   2.016
 20 A2   68 A1   31 B2   50 B1   69 A1   51 B1   70 A1   32 B2                 
  2.036   2.043   2.095   2.111   2.113   2.126   2.185   2.194
 71 A1   52 B1   33 B2   53 B1   21 A2   72 A1   34 B2   22 A2                 
  2.198   2.241   2.270   2.274   2.288   2.333   2.335   2.364
 73 A1   54 B1   74 A1   55 B1   35 B2   56 B1   75 A1   23 A2                 
  2.381   2.413   2.443   2.608   2.629   2.709   2.784   2.801
 76 A1   57 B1   77 A1   24 A2   36 B2   58 B1   78 A1   79 A1                 
  2.806   2.914   2.925   2.965   3.109   3.128   3.171   3.182
 59 B1   60 B1   80 A1   81 A1   82 A1   61 B1   62 B1   83 A1                 
  3.335   3.429   3.590   3.820   4.570
 63 B1   84 A1   64 B1   85 A1   86 A1                                         

 Occupation and symmetry of molecular orbitals

 Point group: C2v (4 irreducible representations).

                           A1   A2   B1   B2    All 
 ----------------------------------------------------
 All molecular orbitals:
  - Alpha                  86   24   64   36    210 
  - Beta                   86   24   64   36    210 
 ----------------------------------------------------
 Alpha orbitals:
  - Frozen occupied        7    0    3    1     11  
  - Active occupied        8    1    6    3     18  
  - Active virtual         71   23   55   32    181 
  - Frozen virtual         0    0    0    0     0   
 ----------------------------------------------------
 Beta orbitals:
  - Frozen occupied        7    0    3    1     11  
  - Active occupied        8    1    6    3     18  
  - Active virtual         71   23   55   32    181 
  - Frozen virtual         0    0    0    0     0   
 ----------------------------------------------------

 Import integrals:   CPU 0.00 s  wall 0.00 s

 Import integrals:   CPU 114.77 s  wall 93.21 s

 MP2 amplitudes:   CPU 2.75 s  wall 2.59 s

           CCSD T amplitudes will be solved using DIIS.

           Start     Size      MaxIter   EConv     TConv     
           3         7         100       1.00e-06  1.00e-04  
 ------------------------------------------------------------------------------
           Energy (a.u.)   Ediff      Tdiff       Comment
 ------------------------------------------------------------------------------
          -690.60562110                           
     1    -690.61272849   7.11e-03   1.01e+00     
     2    -690.64025012   2.75e-02   1.38e-01     
     3    -690.64113359   8.83e-04   4.57e-02     
     4    -690.64372937   2.60e-03   1.38e-02     Switched to DIIS steps.
     5    -690.64467604   9.47e-04   1.10e-02     
     6    -690.64470712   3.11e-05   2.10e-03     
     7    -690.64469543   1.17e-05   1.01e-03     
     8    -690.64469426   1.17e-06   1.92e-04     
     9    -690.64469438   1.14e-07   7.07e-05     
 ------------------------------------------------------------------------------
          -690.64469438                           CCSD T converged.

 SCF energy                 = -689.65049200
 MP2 energy                 = -690.60562110
 CCSD correlation energy     =   -0.99420238
 CCSD total energy           = -690.64469438

 CCSD  T1^2 = 0.0070  T2^2 = 0.4088  Leading amplitudes:

 Amplitude    Orbitals with energies
  0.0149       4 (B2) A                  ->    23 (B2) A                  
              -0.3370                          0.9659                     
  0.0149       4 (B2) B                  ->    23 (B2) B                  
              -0.3370                          0.9659                     
 -0.0146       1 (A2) A                  ->    12 (A2) A                  
              -0.3528                          0.9307                     
 -0.0146       1 (A2) B                  ->    12 (A2) B                  
              -0.3528                          0.9307                     

 Amplitude    Orbitals with energies
 -0.0620       1 (A2) A      1 (A2) B    ->    2 (A2) A      2 (A2) B     
              -0.3528       -0.3528            0.0962        0.0962       
  0.0620       1 (A2) A      1 (A2) B    ->    2 (A2) B      2 (A2) A     
              -0.3528       -0.3528            0.0962        0.0962       
  0.0620       1 (A2) B      1 (A2) A    ->    2 (A2) A      2 (A2) B     
              -0.3528       -0.3528            0.0962        0.0962       
 -0.0620       1 (A2) B      1 (A2) A    ->    2 (A2) B      2 (A2) A     
              -0.3528       -0.3528            0.0962        0.0962       

 Computing CCSD intermediates for later calculations
 CCSD calculation:   CPU 341.17 s  wall 200.67 s

        Solving for CVS-EOMEE-CCSD A1 singlet states.

        CVS-EOMEE-CCSD/MP2 right amplitudes will be solved using Davidson.
        Amplitudes will be solved using standard  algorithm.
     Hard-coded thresholds: 
     LinDepThresh=1.00e-15  NormThresh=1.00e-06  ReorthogonThresh=1.00e-02

      Roots     MaxVec    MaxIter   Precond   Conv      Shift    
      4         120       60        1         1.00e-05  0.00e+00  
 ------------------------------------------------------------------------------
      Iter ConvRoots NVecs ResNorm Current eigenvalues (eV)
 ------------------------------------------------------------------------------
      0    0      4     8.77e-01   216.8961   217.0712   217.9239   218.1152   
      1    0      8     3.53e+00   213.5992   213.6443   214.5796   214.6376   
      2    0      12    1.80e-02   207.6011   207.8731   208.4905   208.7687   
      3    0      16    4.23e-03   207.3038   207.6685   208.2520   208.5745   
      4    0      20    7.28e-03   207.1294   207.5913   208.1599   208.5294   
      5    0      24    1.34e-02   206.8072   207.4449   207.7843   208.4410   
      6    0      28    1.11e-02   206.6451   206.9180   207.4714   208.3646   
      7    0      32    1.07e-02   205.9719   206.6732   207.4514   208.2023   
      8    0      36    5.54e-03   205.3240   206.6380   207.4444   208.0705   
      9    0      40    9.00e-04   205.1998   206.6210   207.4404   208.0174   
      10   0      44    4.45e-04   205.1757   206.6188   207.4360   207.9997   
      11   0      48    6.09e-04   205.1674   206.6168   207.4288   207.9858   
      12   0      52    1.21e-02   205.1619   206.6157   207.3116   207.4899   
      13   0      56    2.90e-03   205.1595   206.6118   206.8219   207.4478   
      14   0      60    2.09e-03   205.1591   206.5895   206.6551   207.4452   
      15   1      64    7.75e-04   205.1588*  206.5033   206.6253   207.4437   
      16   1      67    2.97e-04   205.1588*  206.4674   206.6229   207.4428   
      17   1      70    2.12e-04   205.1588*  206.4456   206.6218   207.4419   
      18   1      73    7.67e-05   205.1588*  206.4349   206.6213   207.4415   
      19   3      76    3.19e-05   205.1588*  206.4321   206.6212*  207.4415*  
      20   3      77    8.60e-06   205.1588*  206.4305   206.6212*  207.4413*  
      21   4      78    3.29e-06   205.1588*  206.4302*  206.6212*  207.4412*  

     Davidson procedure converged

 EOMEE transition 1/A1
 Total energy = -683.10524689 a.u.  Excitation energy = 205.1588 eV.
 R0^2 = 0.0000  R1^2 = 0.8784  R2_CCVV^2 = 0.0020  R2_COVV^2 = 0.0598  Res^2 = 9.12e-07
 Conv-d = yes

 Amplitude    Transitions between orbitals
 -0.3432       7 (A1) A                  ->    27 (A1) A                  
 -0.3432       7 (A1) B                  ->    27 (A1) B                  
 -0.3246       7 (A1) A                  ->    26 (A1) A                  
 -0.3246       7 (A1) B                  ->    26 (A1) B                  
  0.2879       7 (A1) A                  ->    19 (A1) A                  
  0.2879       7 (A1) B                  ->    19 (A1) B                  
  0.1865       7 (A1) A                  ->    22 (A1) A                  
  0.1865       7 (A1) B                  ->    22 (A1) B                  
  0.1418       7 (A1) A                  ->    24 (A1) A                  
  0.1418       7 (A1) B                  ->    24 (A1) B                  
 -0.1127       7 (A1) A                  ->    21 (A1) A                  
 -0.1127       7 (A1) B                  ->    21 (A1) B                  

              Summary of significant orbitals:

               Number  Type             Irrep      Energy
               9       Occ  Alpha       7 (A1)     -8.0341
               9       Occ  Beta        7 (A1)     -8.0341
               37      Vir  Alpha      19 (A1)      0.0980
               42      Vir  Alpha      21 (A1)      0.1439
               45      Vir  Alpha      22 (A1)      0.1492
               48      Vir  Alpha      24 (A1)      0.1718
               56      Vir  Alpha      26 (A1)      0.2177
               58      Vir  Alpha      27 (A1)      0.2639
               37      Vir  Beta       19 (A1)      0.0980
               42      Vir  Beta       21 (A1)      0.1439
               45      Vir  Beta       22 (A1)      0.1492
               48      Vir  Beta       24 (A1)      0.1718
               56      Vir  Beta       26 (A1)      0.2177
               58      Vir  Beta       27 (A1)      0.2639


 EOMEE transition 2/A1
 Total energy = -683.05852457 a.u.  Excitation energy = 206.4302 eV.
 R0^2 = 0.0000  R1^2 = 0.8473  R2_CCVV^2 = 0.0019  R2_COVV^2 = 0.0754  Res^2 = 9.88e-06
 Conv-d = yes

 Amplitude    Transitions between orbitals
 -0.5601       1 (B2) A                  ->    5 (B2) A                   
 -0.5601       1 (B2) B                  ->    5 (B2) B                   
  0.1825       1 (B2) A                  ->    8 (B2) A                   
  0.1825       1 (B2) B                  ->    8 (B2) B                   
  0.1702       1 (B2) A                  ->    6 (B2) A                   
  0.1702       1 (B2) B                  ->    6 (B2) B                   
 -0.1166       1 (B2) A                  ->    11 (B2) A                  
 -0.1166       1 (B2) B                  ->    11 (B2) B                  

              Summary of significant orbitals:

               Number  Type             Irrep      Energy
               11      Occ  Alpha       1 (B2)     -8.0307
               11      Occ  Beta        1 (B2)     -8.0307
               35      Vir  Alpha       5 (B2)      0.0929
               38      Vir  Alpha       6 (B2)      0.1181
               50      Vir  Alpha       8 (B2)      0.1793
               65      Vir  Alpha      11 (B2)      0.3332
               35      Vir  Beta        5 (B2)      0.0929
               38      Vir  Beta        6 (B2)      0.1181
               50      Vir  Beta        8 (B2)      0.1793
               65      Vir  Beta       11 (B2)      0.3332


 EOMEE transition 3/A1
 Total energy = -683.05150563 a.u.  Excitation energy = 206.6212 eV.
 R0^2 = 0.0000  R1^2 = 0.8661  R2_CCVV^2 = 0.0019  R2_COVV^2 = 0.0660  Res^2 = 5.32e-07
 Conv-d = yes

 Amplitude    Transitions between orbitals
 -0.3947       7 (A1) A                  ->    17 (A1) A                  
 -0.3947       7 (A1) B                  ->    17 (A1) B                  
  0.2715       7 (A1) A                  ->    18 (A1) A                  
  0.2715       7 (A1) B                  ->    18 (A1) B                  
  0.2456       7 (A1) A                  ->    16 (A1) A                  
  0.2456       7 (A1) B                  ->    16 (A1) B                  
 -0.1903       7 (A1) A                  ->    19 (A1) A                  
 -0.1903       7 (A1) B                  ->    19 (A1) B                  
 -0.1682       7 (A1) A                  ->    21 (A1) A                  
 -0.1682       7 (A1) B                  ->    21 (A1) B                  
  0.1564       7 (A1) A                  ->    24 (A1) A                  
  0.1564       7 (A1) B                  ->    24 (A1) B                  
  0.1091       7 (A1) A                  ->    22 (A1) A                  
  0.1091       7 (A1) B                  ->    22 (A1) B                  

              Summary of significant orbitals:

               Number  Type             Irrep      Energy
               9       Occ  Alpha       7 (A1)     -8.0341
               9       Occ  Beta        7 (A1)     -8.0341
               30      Vir  Alpha      16 (A1)      0.0335
               32      Vir  Alpha      17 (A1)      0.0463
               34      Vir  Alpha      18 (A1)      0.0633
               37      Vir  Alpha      19 (A1)      0.0980
               42      Vir  Alpha      21 (A1)      0.1439
               45      Vir  Alpha      22 (A1)      0.1492
               48      Vir  Alpha      24 (A1)      0.1718
               30      Vir  Beta       16 (A1)      0.0335
               32      Vir  Beta       17 (A1)      0.0463
               34      Vir  Beta       18 (A1)      0.0633
               37      Vir  Beta       19 (A1)      0.0980
               42      Vir  Beta       21 (A1)      0.1439
               45      Vir  Beta       22 (A1)      0.1492
               48      Vir  Beta       24 (A1)      0.1718


 EOMEE transition 4/A1
 Total energy = -683.02137046 a.u.  Excitation energy = 207.4412 eV.
 R0^2 = 0.0000  R1^2 = 0.8607  R2_CCVV^2 = 0.0019  R2_COVV^2 = 0.0687  Res^2 = 1.84e-06
 Conv-d = yes

 Amplitude    Transitions between orbitals
  0.4511       3 (B1) A                  ->    10 (B1) A                  
  0.4511       3 (B1) B                  ->    10 (B1) B                  
  0.3904       3 (B1) A                  ->    11 (B1) A                  
  0.3904       3 (B1) B                  ->    11 (B1) B                  
 -0.2067       3 (B1) A                  ->    15 (B1) A                  
 -0.2067       3 (B1) B                  ->    15 (B1) B                  
  0.1272       3 (B1) A                  ->    16 (B1) A                  
  0.1272       3 (B1) B                  ->    16 (B1) B                  

              Summary of significant orbitals:

               Number  Type             Irrep      Energy
               10      Occ  Alpha       3 (B1)     -8.0308
               10      Occ  Beta        3 (B1)     -8.0308
               31      Vir  Alpha      10 (B1)      0.0402
               33      Vir  Alpha      11 (B1)      0.0590
               49      Vir  Alpha      15 (B1)      0.1790
               52      Vir  Alpha      16 (B1)      0.1916
               31      Vir  Beta       10 (B1)      0.0402
               33      Vir  Beta       11 (B1)      0.0590
               49      Vir  Beta       15 (B1)      0.1790
               52      Vir  Beta       16 (B1)      0.1916


        Solving for CVS-EOMEE-CCSD A2 singlet states.

        CVS-EOMEE-CCSD/MP2 right amplitudes will be solved using Davidson.
        Amplitudes will be solved using standard  algorithm.
     Hard-coded thresholds: 
     LinDepThresh=1.00e-15  NormThresh=1.00e-06  ReorthogonThresh=1.00e-02

      Roots     MaxVec    MaxIter   Precond   Conv      Shift    
      4         120       60        1         1.00e-05  0.00e+00  
 ------------------------------------------------------------------------------
      Iter ConvRoots NVecs ResNorm Current eigenvalues (eV)
 ------------------------------------------------------------------------------
      0    0      4     9.31e-01   217.0657   217.5066   218.1115   218.1978   
      1    0      8     3.61e+00   213.4777   213.6193   214.1330   214.6147   
      2    0      12    1.81e-02   207.1974   207.5389   207.8638   208.7609   
      3    0      16    5.18e-03   206.8621   207.2766   207.6568   208.5652   
      4    0      20    5.65e-03   206.6782   207.1977   207.5764   208.5188   
      5    0      24    3.20e-03   206.5183   207.1500   207.4469   208.4322   
      6    0      28    7.15e-04   206.4775   207.1357   207.4190   208.3945   
      7    0      32    2.85e-04   206.4682   207.1337   207.4149   208.3846   
      8    0      36    3.25e-04   206.4403   207.1336   207.4125   208.3796   
      9    1      40    1.20e-03   206.4348   207.1324*  207.4119   208.3700   
      10   1      43    1.44e-03   206.4289   207.1324*  207.4111   208.2112   
      11   2      46    4.70e-04   206.4289   207.1324*  207.4109*  208.1397   
      12   2      48    4.27e-04   206.4281   207.1324*  207.4109*  208.1029   
      13   3      50    3.35e-04   206.4280*  207.1324*  207.4109*  208.0688   
      14   3      51    1.79e-04   206.4279*  207.1324*  207.4109*  208.0504   
      15   3      52    4.40e-05   206.4277*  207.1324*  207.4109*  208.0445   
      16   3      53    1.58e-05   206.4278*  207.1324*  207.4109*  208.0420   
      17   3      54    7.84e-06   206.4277*  207.1324*  207.4109*  208.0407   
      18   4      55    4.52e-06   206.4277*  207.1324*  207.4109*  208.0405*  

     Davidson procedure converged

 EOMEE transition 1/A2
 Total energy = -683.05861428 a.u.  Excitation energy = 206.4277 eV.
 R0^2 = 0.0000  R1^2 = 0.8471  R2_CCVV^2 = 0.0019  R2_COVV^2 = 0.0755  Res^2 = 1.02e-07
 Conv-d = yes

 Amplitude    Transitions between orbitals
  0.5619       3 (B1) A                  ->    5 (B2) A                   
  0.5619       3 (B1) B                  ->    5 (B2) B                   
 -0.1813       3 (B1) A                  ->    8 (B2) A                   
 -0.1813       3 (B1) B                  ->    8 (B2) B                   
 -0.1778       3 (B1) A                  ->    6 (B2) A                   
 -0.1778       3 (B1) B                  ->    6 (B2) B                   
  0.1184       3 (B1) A                  ->    11 (B2) A                  
  0.1184       3 (B1) B                  ->    11 (B2) B                  
 -0.1092       3 (B1) A                  ->    7 (B2) A                   
 -0.1092       3 (B1) B                  ->    7 (B2) B                   

              Summary of significant orbitals:

               Number  Type             Irrep      Energy
               10      Occ  Alpha       3 (B1)     -8.0308
               10      Occ  Beta        3 (B1)     -8.0308
               35      Vir  Alpha       5 (B2)      0.0929
               38      Vir  Alpha       6 (B2)      0.1181
               44      Vir  Alpha       7 (B2)      0.1465
               50      Vir  Alpha       8 (B2)      0.1793
               65      Vir  Alpha      11 (B2)      0.3332
               35      Vir  Beta        5 (B2)      0.0929
               38      Vir  Beta        6 (B2)      0.1181
               44      Vir  Beta        7 (B2)      0.1465
               50      Vir  Beta        8 (B2)      0.1793
               65      Vir  Beta       11 (B2)      0.3332


 EOMEE transition 2/A2
 Total energy = -683.03271815 a.u.  Excitation energy = 207.1324 eV.
 R0^2 = 0.0000  R1^2 = 0.8381  R2_CCVV^2 = 0.0018  R2_COVV^2 = 0.0800  Res^2 = 6.58e-06
 Conv-d = yes

 Amplitude    Transitions between orbitals
 -0.6247       7 (A1) A                  ->    2 (A2) A                   
 -0.6247       7 (A1) B                  ->    2 (A2) B                   
 -0.1432       7 (A1) A                  ->    4 (A2) A                   
 -0.1432       7 (A1) B                  ->    4 (A2) B                   

              Summary of significant orbitals:

               Number  Type             Irrep      Energy
               9       Occ  Alpha       7 (A1)     -8.0341
               9       Occ  Beta        7 (A1)     -8.0341
               36      Vir  Alpha       2 (A2)      0.0962
               53      Vir  Alpha       4 (A2)      0.1921
               36      Vir  Beta        2 (A2)      0.0962
               53      Vir  Beta        4 (A2)      0.1921


 EOMEE transition 3/A2
 Total energy = -683.02248248 a.u.  Excitation energy = 207.4109 eV.
 R0^2 = 0.0000  R1^2 = 0.8611  R2_CCVV^2 = 0.0019  R2_COVV^2 = 0.0685  Res^2 = 2.41e-06
 Conv-d = yes

 Amplitude    Transitions between orbitals
 -0.4459       1 (B2) A                  ->    10 (B1) A                  
 -0.4459       1 (B2) B                  ->    10 (B1) B                  
 -0.3962       1 (B2) A                  ->    11 (B1) A                  
 -0.3962       1 (B2) B                  ->    11 (B1) B                  
  0.2169       1 (B2) A                  ->    15 (B1) A                  
  0.2169       1 (B2) B                  ->    15 (B1) B                  
 -0.1353       1 (B2) A                  ->    16 (B1) A                  
 -0.1353       1 (B2) B                  ->    16 (B1) B                  

              Summary of significant orbitals:

               Number  Type             Irrep      Energy
               11      Occ  Alpha       1 (B2)     -8.0307
               11      Occ  Beta        1 (B2)     -8.0307
               31      Vir  Alpha      10 (B1)      0.0402
               33      Vir  Alpha      11 (B1)      0.0590
               49      Vir  Alpha      15 (B1)      0.1790
               52      Vir  Alpha      16 (B1)      0.1916
               31      Vir  Beta       10 (B1)      0.0402
               33      Vir  Beta       11 (B1)      0.0590
               49      Vir  Beta       15 (B1)      0.1790
               52      Vir  Beta       16 (B1)      0.1916


 EOMEE transition 4/A2
 Total energy = -682.99934636 a.u.  Excitation energy = 208.0405 eV.
 R0^2 = 0.0000  R1^2 = 0.8666  R2_CCVV^2 = 0.0019  R2_COVV^2 = 0.0658  Res^2 = 8.98e-06
 Conv-d = yes

 Amplitude    Transitions between orbitals
 -0.4477       3 (B1) A                  ->    7 (B2) A                   
 -0.4477       3 (B1) B                  ->    7 (B2) B                   
 -0.3657       3 (B1) A                  ->    6 (B2) A                   
 -0.3657       3 (B1) B                  ->    6 (B2) B                   
 -0.2198       3 (B1) A                  ->    5 (B2) A                   
 -0.2198       3 (B1) B                  ->    5 (B2) B                   
 -0.1902       3 (B1) A                  ->    9 (B2) A                   
 -0.1902       3 (B1) B                  ->    9 (B2) B                   

              Summary of significant orbitals:

               Number  Type             Irrep      Energy
               10      Occ  Alpha       3 (B1)     -8.0308
               10      Occ  Beta        3 (B1)     -8.0308
               35      Vir  Alpha       5 (B2)      0.0929
               38      Vir  Alpha       6 (B2)      0.1181
               44      Vir  Alpha       7 (B2)      0.1465
               54      Vir  Alpha       9 (B2)      0.2022
               35      Vir  Beta        5 (B2)      0.0929
               38      Vir  Beta        6 (B2)      0.1181
               44      Vir  Beta        7 (B2)      0.1465
               54      Vir  Beta        9 (B2)      0.2022


        Solving for CVS-EOMEE-CCSD B1 singlet states.

        CVS-EOMEE-CCSD/MP2 right amplitudes will be solved using Davidson.
        Amplitudes will be solved using standard  algorithm.
     Hard-coded thresholds: 
     LinDepThresh=1.00e-15  NormThresh=1.00e-06  ReorthogonThresh=1.00e-02

      Roots     MaxVec    MaxIter   Precond   Conv      Shift    
      4         120       60        1         1.00e-05  0.00e+00  
 ------------------------------------------------------------------------------
      Iter ConvRoots NVecs ResNorm Current eigenvalues (eV)
 ------------------------------------------------------------------------------
      0    0      4     8.77e-01   216.8062   217.1550   217.8380   218.2003   
      1    0      8     3.53e+00   213.3389   213.8962   214.3221   214.8928   
      2    0      12    1.79e-02   207.4794   207.9848   208.3772   208.8801   
      3    0      16    4.19e-03   207.1926   207.7666   208.1518   208.6730   
      4    0      20    7.76e-03   207.0057   207.6876   208.0576   208.6258   
      5    0      24    1.56e-02   206.6570   207.5597   207.5691   208.5482   
      6    0      28    1.34e-02   206.5433   206.6294   207.5322   208.2533   
      7    0      32    1.14e-02   205.5871   206.5292   207.5261   208.0571   
      8    0      36    4.58e-03   204.9722   206.4991   207.5235   207.9432   
      9    0      40    7.94e-04   204.8648   206.4848   207.5230   207.8963   
      10   0      44    3.85e-04   204.8431   206.4827   207.5223   207.8814   
      11   1      48    2.26e-04   204.8337   206.4814   207.5221*  207.8692   
      12   1      51    2.73e-04   204.8288   206.4813   207.5221*  207.8542   
      13   2      54    8.56e-05   204.8272   206.4813*  207.5221*  207.8423   
      14   3      56    4.81e-05   204.8267*  206.4812*  207.5221*  207.8371   
      15   3      57    1.31e-05   204.8265*  206.4812*  207.5221*  207.8349   
      16   3      58    6.53e-06   204.8265*  206.4812*  207.5221*  207.8339   
      17   4      59    3.74e-06   204.8265*  206.4812*  207.5221*  207.8337*  

     Davidson procedure converged

 EOMEE transition 1/B1
 Total energy = -683.11745865 a.u.  Excitation energy = 204.8265 eV.
 R0^2 = 0.0000  R1^2 = 0.8848  R2_CCVV^2 = 0.0020  R2_COVV^2 = 0.0566  Res^2 = 9.28e-07
 Conv-d = yes

 Amplitude    Transitions between orbitals
  0.3556       3 (B1) A                  ->    27 (A1) A                  
  0.3556       3 (B1) B                  ->    27 (A1) B                  
  0.3336       3 (B1) A                  ->    26 (A1) A                  
  0.3336       3 (B1) B                  ->    26 (A1) B                  
 -0.2603       3 (B1) A                  ->    19 (A1) A                  
 -0.2603       3 (B1) B                  ->    19 (A1) B                  
 -0.1899       3 (B1) A                  ->    22 (A1) A                  
 -0.1899       3 (B1) B                  ->    22 (A1) B                  
 -0.1505       3 (B1) A                  ->    24 (A1) A                  
 -0.1505       3 (B1) B                  ->    24 (A1) B                  
  0.1139       3 (B1) A                  ->    21 (A1) A                  
  0.1139       3 (B1) B                  ->    21 (A1) B                  
 -0.1013       3 (B1) A                  ->    31 (A1) A                  
 -0.1013       3 (B1) B                  ->    31 (A1) B                  

              Summary of significant orbitals:

               Number  Type             Irrep      Energy
               10      Occ  Alpha       3 (B1)     -8.0308
               10      Occ  Beta        3 (B1)     -8.0308
               37      Vir  Alpha      19 (A1)      0.0980
               42      Vir  Alpha      21 (A1)      0.1439
               45      Vir  Alpha      22 (A1)      0.1492
               48      Vir  Alpha      24 (A1)      0.1718
               56      Vir  Alpha      26 (A1)      0.2177
               58      Vir  Alpha      27 (A1)      0.2639
               66      Vir  Alpha      31 (A1)      0.3345
               37      Vir  Beta       19 (A1)      0.0980
               42      Vir  Beta       21 (A1)      0.1439
               45      Vir  Beta       22 (A1)      0.1492
               48      Vir  Beta       24 (A1)      0.1718
               56      Vir  Beta       26 (A1)      0.2177
               58      Vir  Beta       27 (A1)      0.2639
               66      Vir  Beta       31 (A1)      0.3345


 EOMEE transition 2/B1
 Total energy = -683.05665098 a.u.  Excitation energy = 206.4812 eV.
 R0^2 = 0.0000  R1^2 = 0.8676  R2_CCVV^2 = 0.0019  R2_COVV^2 = 0.0652  Res^2 = 1.95e-06
 Conv-d = yes

 Amplitude    Transitions between orbitals
  0.3972       3 (B1) A                  ->    17 (A1) A                  
  0.3972       3 (B1) B                  ->    17 (A1) B                  
 -0.2823       3 (B1) A                  ->    18 (A1) A                  
 -0.2823       3 (B1) B                  ->    18 (A1) B                  
 -0.2372       3 (B1) A                  ->    16 (A1) A                  
 -0.2372       3 (B1) B                  ->    16 (A1) B                  
  0.2192       3 (B1) A                  ->    19 (A1) A                  
  0.2192       3 (B1) B                  ->    19 (A1) B                  
  0.1613       3 (B1) A                  ->    21 (A1) A                  
  0.1613       3 (B1) B                  ->    21 (A1) B                  
 -0.1522       3 (B1) A                  ->    24 (A1) A                  
 -0.1522       3 (B1) B                  ->    24 (A1) B                  
 -0.1012       3 (B1) A                  ->    22 (A1) A                  
 -0.1012       3 (B1) B                  ->    22 (A1) B                  

              Summary of significant orbitals:

               Number  Type             Irrep      Energy
               10      Occ  Alpha       3 (B1)     -8.0308
               10      Occ  Beta        3 (B1)     -8.0308
               30      Vir  Alpha      16 (A1)      0.0335
               32      Vir  Alpha      17 (A1)      0.0463
               34      Vir  Alpha      18 (A1)      0.0633
               37      Vir  Alpha      19 (A1)      0.0980
               42      Vir  Alpha      21 (A1)      0.1439
               45      Vir  Alpha      22 (A1)      0.1492
               48      Vir  Alpha      24 (A1)      0.1718
               30      Vir  Beta       16 (A1)      0.0335
               32      Vir  Beta       17 (A1)      0.0463
               34      Vir  Beta       18 (A1)      0.0633
               37      Vir  Beta       19 (A1)      0.0980
               42      Vir  Beta       21 (A1)      0.1439
               45      Vir  Beta       22 (A1)      0.1492
               48      Vir  Beta       24 (A1)      0.1718


 EOMEE transition 3/B1
 Total energy = -683.01839881 a.u.  Excitation energy = 207.5221 eV.
 R0^2 = 0.0000  R1^2 = 0.8603  R2_CCVV^2 = 0.0018  R2_COVV^2 = 0.0689  Res^2 = 4.55e-06
 Conv-d = yes

 Amplitude    Transitions between orbitals
  0.4474       7 (A1) A                  ->    10 (B1) A                  
  0.4474       7 (A1) B                  ->    10 (B1) B                  
  0.3950       7 (A1) A                  ->    11 (B1) A                  
  0.3950       7 (A1) B                  ->    11 (B1) B                  
 -0.2162       7 (A1) A                  ->    15 (B1) A                  
 -0.2162       7 (A1) B                  ->    15 (B1) B                  
  0.1337       7 (A1) A                  ->    16 (B1) A                  
  0.1337       7 (A1) B                  ->    16 (B1) B                  

              Summary of significant orbitals:

               Number  Type             Irrep      Energy
               9       Occ  Alpha       7 (A1)     -8.0341
               9       Occ  Beta        7 (A1)     -8.0341
               31      Vir  Alpha      10 (B1)      0.0402
               33      Vir  Alpha      11 (B1)      0.0590
               49      Vir  Alpha      15 (B1)      0.1790
               52      Vir  Alpha      16 (B1)      0.1916
               31      Vir  Beta       10 (B1)      0.0402
               33      Vir  Beta       11 (B1)      0.0590
               49      Vir  Beta       15 (B1)      0.1790
               52      Vir  Beta       16 (B1)      0.1916


 EOMEE transition 4/B1
 Total energy = -683.00694779 a.u.  Excitation energy = 207.8337 eV.
 R0^2 = 0.0000  R1^2 = 0.8551  R2_CCVV^2 = 0.0019  R2_COVV^2 = 0.0715  Res^2 = 7.53e-06
 Conv-d = yes

 Amplitude    Transitions between orbitals
 -0.5278       3 (B1) A                  ->    16 (A1) A                  
 -0.5278       3 (B1) B                  ->    16 (A1) B                  
 -0.2247       3 (B1) A                  ->    19 (A1) A                  
 -0.2247       3 (B1) B                  ->    19 (A1) B                  
  0.1710       3 (B1) A                  ->    18 (A1) A                  
  0.1710       3 (B1) B                  ->    18 (A1) B                  
 -0.1268       3 (B1) A                  ->    20 (A1) A                  
 -0.1268       3 (B1) B                  ->    20 (A1) B                  
 -0.1139       3 (B1) A                  ->    26 (A1) A                  
 -0.1139       3 (B1) B                  ->    26 (A1) B                  

              Summary of significant orbitals:

               Number  Type             Irrep      Energy
               10      Occ  Alpha       3 (B1)     -8.0308
               10      Occ  Beta        3 (B1)     -8.0308
               30      Vir  Alpha      16 (A1)      0.0335
               34      Vir  Alpha      18 (A1)      0.0633
               37      Vir  Alpha      19 (A1)      0.0980
               39      Vir  Alpha      20 (A1)      0.1192
               56      Vir  Alpha      26 (A1)      0.2177
               30      Vir  Beta       16 (A1)      0.0335
               34      Vir  Beta       18 (A1)      0.0633
               37      Vir  Beta       19 (A1)      0.0980
               39      Vir  Beta       20 (A1)      0.1192
               56      Vir  Beta       26 (A1)      0.2177


        Solving for CVS-EOMEE-CCSD B2 singlet states.

        CVS-EOMEE-CCSD/MP2 right amplitudes will be solved using Davidson.
        Amplitudes will be solved using standard  algorithm.
     Hard-coded thresholds: 
     LinDepThresh=1.00e-15  NormThresh=1.00e-06  ReorthogonThresh=1.00e-02

      Roots     MaxVec    MaxIter   Precond   Conv      Shift    
      4         120       60        1         1.00e-05  0.00e+00  
 ------------------------------------------------------------------------------
      Iter ConvRoots NVecs ResNorm Current eigenvalues (eV)
 ------------------------------------------------------------------------------
      0    0      4     9.13e-01   216.4796   217.6936   218.1150   218.3869   
      1    0      8     3.34e+00   213.0285   213.8598   214.1623   214.8865   
      2    0      12    1.89e-02   207.2515   207.4298   208.2317   209.0014   
      3    0      16    5.45e-03   206.9627   207.1810   207.9861   208.7604   
      4    0      20    1.50e-02   206.7460   207.1036   207.7562   208.6093   
      5    0      24    1.86e-02   206.2586   206.7320   207.0549   208.2262   
      6    0      28    7.43e-03   205.6895   206.5451   207.0427   208.1030   
      7    0      32    6.11e-03   205.1910   206.4993   207.0413   207.9995   
      8    0      36    2.67e-03   204.8969   206.4801   207.0413   207.9098   
      9    1      40    3.88e-04   204.8457   206.4754   207.0401*  207.8796   
      10   1      43    2.95e-04   204.8343   206.4737   207.0401*  207.8701   
      11   1      46    1.90e-04   204.8295   206.4735   207.0401*  207.8569   
      12   2      49    1.80e-04   204.8275   206.4732*  207.0401*  207.8428   
      13   3      51    4.76e-05   204.8273*  206.4732*  207.0401*  207.8356   
      14   3      52    5.18e-05   204.8270*  206.4731*  207.0401*  207.8320   
      15   3      53    2.50e-05   204.8269*  206.4731*  207.0401*  207.8289   
      16   3      54    1.24e-05   204.8268*  206.4731*  207.0401*  207.8277   
      17   3      55    1.13e-05   204.8269*  206.4731*  207.0401*  207.8269   
      18   3      56    2.52e-05   204.8269*  206.4731*  207.0401*  207.8260   
      19   3      57    1.43e-02   204.8269*  206.4731*  207.0401*  207.6202   
      20   2      58    5.02e-03   204.8269*  206.4731*  206.8500   207.0401   
      21   3      60    1.27e-03   204.8269*  206.4731*  206.5376   207.0405*  
      22   3      61    2.55e-04   204.8269*  206.4731*  206.5153   207.0405*  
      23   3      62    7.25e-05   204.8269*  206.4731*  206.4872   207.0405*  
      24   3      63    2.49e-05   204.8269*  206.4731*  206.4908   207.0405*  
      25   3      64    1.05e-05   204.8269*  206.4731*  206.4867   207.0405*  
      26   3      65    6.52e-06   204.8269*  206.4731*  206.4874   207.0405*  
      27   3      66    4.43e-06   204.8269*  206.4731*  206.4866   207.0405*  
      28   4      67    3.40e-06   204.8269*  206.4731*  206.4869*  207.0405*  

     Davidson procedure converged

 EOMEE transition 1/B2
 Total energy = -683.11744568 a.u.  Excitation energy = 204.8269 eV.
 R0^2 = 0.0000  R1^2 = 0.8847  R2_CCVV^2 = 0.0020  R2_COVV^2 = 0.0566  Res^2 = 1.19e-06
 Conv-d = yes

 Amplitude    Transitions between orbitals
 -0.3552       1 (B2) A                  ->    27 (A1) A                  
 -0.3552       1 (B2) B                  ->    27 (A1) B                  
 -0.3340       1 (B2) A                  ->    26 (A1) A                  
 -0.3340       1 (B2) B                  ->    26 (A1) B                  
  0.2604       1 (B2) A                  ->    19 (A1) A                  
  0.2604       1 (B2) B                  ->    19 (A1) B                  
  0.1896       1 (B2) A                  ->    22 (A1) A                  
  0.1896       1 (B2) B                  ->    22 (A1) B                  
  0.1500       1 (B2) A                  ->    24 (A1) A                  
  0.1500       1 (B2) B                  ->    24 (A1) B                  
 -0.1139       1 (B2) A                  ->    21 (A1) A                  
 -0.1139       1 (B2) B                  ->    21 (A1) B                  
  0.1005       1 (B2) A                  ->    31 (A1) A                  
  0.1005       1 (B2) B                  ->    31 (A1) B                  
  0.1002       1 (B2) A                  ->    36 (A1) A                  
  0.1002       1 (B2) B                  ->    36 (A1) B                  

              Summary of significant orbitals:

               Number  Type             Irrep      Energy
               11      Occ  Alpha       1 (B2)     -8.0307
               11      Occ  Beta        1 (B2)     -8.0307
               37      Vir  Alpha      19 (A1)      0.0980
               42      Vir  Alpha      21 (A1)      0.1439
               45      Vir  Alpha      22 (A1)      0.1492
               48      Vir  Alpha      24 (A1)      0.1718
               56      Vir  Alpha      26 (A1)      0.2177
               58      Vir  Alpha      27 (A1)      0.2639
               66      Vir  Alpha      31 (A1)      0.3345
               76      Vir  Alpha      36 (A1)      0.4295
               37      Vir  Beta       19 (A1)      0.0980
               42      Vir  Beta       21 (A1)      0.1439
               45      Vir  Beta       22 (A1)      0.1492
               48      Vir  Beta       24 (A1)      0.1718
               56      Vir  Beta       26 (A1)      0.2177
               58      Vir  Beta       27 (A1)      0.2639
               66      Vir  Beta       31 (A1)      0.3345
               76      Vir  Beta       36 (A1)      0.4295


 EOMEE transition 2/B2
 Total energy = -683.05694847 a.u.  Excitation energy = 206.4731 eV.
 R0^2 = 0.0000  R1^2 = 0.8673  R2_CCVV^2 = 0.0019  R2_COVV^2 = 0.0654  Res^2 = 1.52e-06
 Conv-d = yes

 Amplitude    Transitions between orbitals
 -0.3958       1 (B2) A                  ->    17 (A1) A                  
 -0.3958       1 (B2) B                  ->    17 (A1) B                  
  0.2818       1 (B2) A                  ->    18 (A1) A                  
  0.2818       1 (B2) B                  ->    18 (A1) B                  
  0.2366       1 (B2) A                  ->    16 (A1) A                  
  0.2366       1 (B2) B                  ->    16 (A1) B                  
 -0.2192       1 (B2) A                  ->    19 (A1) A                  
 -0.2192       1 (B2) B                  ->    19 (A1) B                  
 -0.1616       1 (B2) A                  ->    21 (A1) A                  
 -0.1616       1 (B2) B                  ->    21 (A1) B                  
  0.1502       1 (B2) A                  ->    24 (A1) A                  
  0.1502       1 (B2) B                  ->    24 (A1) B                  
  0.1001       1 (B2) A                  ->    22 (A1) A                  
  0.1001       1 (B2) B                  ->    22 (A1) B                  

              Summary of significant orbitals:

               Number  Type             Irrep      Energy
               11      Occ  Alpha       1 (B2)     -8.0307
               11      Occ  Beta        1 (B2)     -8.0307
               30      Vir  Alpha      16 (A1)      0.0335
               32      Vir  Alpha      17 (A1)      0.0463
               34      Vir  Alpha      18 (A1)      0.0633
               37      Vir  Alpha      19 (A1)      0.0980
               42      Vir  Alpha      21 (A1)      0.1439
               45      Vir  Alpha      22 (A1)      0.1492
               48      Vir  Alpha      24 (A1)      0.1718
               30      Vir  Beta       16 (A1)      0.0335
               32      Vir  Beta       17 (A1)      0.0463
               34      Vir  Beta       18 (A1)      0.0633
               37      Vir  Beta       19 (A1)      0.0980
               42      Vir  Beta       21 (A1)      0.1439
               45      Vir  Beta       22 (A1)      0.1492
               48      Vir  Beta       24 (A1)      0.1718


 EOMEE transition 3/B2
 Total energy = -683.05643884 a.u.  Excitation energy = 206.4869 eV.
 R0^2 = 0.0000  R1^2 = 0.8459  R2_CCVV^2 = 0.0018  R2_COVV^2 = 0.0761  Res^2 = 8.50e-06
 Conv-d = yes

 Amplitude    Transitions between orbitals
 -0.5584       7 (A1) A                  ->    5 (B2) A                   
 -0.5584       7 (A1) B                  ->    5 (B2) B                   
  0.1819       7 (A1) A                  ->    8 (B2) A                   
  0.1819       7 (A1) B                  ->    8 (B2) B                   
  0.1806       7 (A1) A                  ->    6 (B2) A                   
  0.1806       7 (A1) B                  ->    6 (B2) B                   
 -0.1205       7 (A1) A                  ->    11 (B2) A                  
 -0.1205       7 (A1) B                  ->    11 (B2) B                  
  0.1126       7 (A1) A                  ->    7 (B2) A                   
  0.1126       7 (A1) B                  ->    7 (B2) B                   

              Summary of significant orbitals:

               Number  Type             Irrep      Energy
               9       Occ  Alpha       7 (A1)     -8.0341
               9       Occ  Beta        7 (A1)     -8.0341
               35      Vir  Alpha       5 (B2)      0.0929
               38      Vir  Alpha       6 (B2)      0.1181
               44      Vir  Alpha       7 (B2)      0.1465
               50      Vir  Alpha       8 (B2)      0.1793
               65      Vir  Alpha      11 (B2)      0.3332
               35      Vir  Beta        5 (B2)      0.0929
               38      Vir  Beta        6 (B2)      0.1181
               44      Vir  Beta        7 (B2)      0.1465
               50      Vir  Beta        8 (B2)      0.1793
               65      Vir  Beta       11 (B2)      0.3332


 EOMEE transition 4/B2
 Total energy = -683.03609506 a.u.  Excitation energy = 207.0405 eV.
 R0^2 = 0.0000  R1^2 = 0.8394  R2_CCVV^2 = 0.0019  R2_COVV^2 = 0.0794  Res^2 = 2.40e-06
 Conv-d = yes

 Amplitude    Transitions between orbitals
  0.6252       3 (B1) A                  ->    2 (A2) A                   
  0.6252       3 (B1) B                  ->    2 (A2) B                   
  0.1423       3 (B1) A                  ->    4 (A2) A                   
  0.1423       3 (B1) B                  ->    4 (A2) B                   

              Summary of significant orbitals:

               Number  Type             Irrep      Energy
               10      Occ  Alpha       3 (B1)     -8.0308
               10      Occ  Beta        3 (B1)     -8.0308
               36      Vir  Alpha       2 (A2)      0.0962
               53      Vir  Alpha       4 (A2)      0.1921
               36      Vir  Beta        2 (A2)      0.0962
               53      Vir  Beta        4 (A2)      0.1921


 CVS-EOMEE-CCSD calculation:   CPU 12270.66 s  wall 11953.42 s

 Total ccman2 time:   CPU 12743.30 s  wall 12257.95 s


 --------------------------------------------------------------
             Orbital Energies (a.u.) and Symmetries
 --------------------------------------------------------------

 Alpha MOs, Restricted
 -- Occupied --                  
-104.84  -11.31  -11.26  -11.26  -11.26  -11.26  -11.25  -10.57
  1 A1    2 A1    3 A1    1 B1    4 A1    2 B1    5 A1    6 A1                 
 -8.034  -8.031  -8.031  -1.197  -1.125  -1.036  -1.001  -0.850
  7 A1    3 B1    1 B2    8 A1    9 A1    4 B1   10 A1    5 B1                 
 -0.823  -0.714  -0.651  -0.650  -0.606  -0.592  -0.547  -0.518
 11 A1   12 A1   13 A1    6 B1    7 B1   14 A1    2 B2    8 B1                 
 -0.514  -0.471  -0.456  -0.353  -0.337
 15 A1    3 B2    9 B1    1 A2    4 B2                                         
 -- Virtual --                   
  0.033   0.040   0.046   0.059   0.063   0.093   0.096   0.098
 16 A1   10 B1   17 A1   11 B1   18 A1    5 B2    2 A2   19 A1                 
  0.118   0.119   0.132   0.138   0.144   0.144   0.146   0.149
  6 B2   20 A1   12 B1    3 A2   21 A1   13 B1    7 B2   22 A1                 
  0.160   0.162   0.172   0.179   0.179   0.181   0.192   0.192
 23 A1   14 B1   24 A1   15 B1    8 B2   25 A1   16 B1    4 A2                 
  0.202   0.205   0.218   0.222   0.264   0.268   0.288   0.297
  9 B2   10 B2   26 A1   17 B1   27 A1   18 B1   28 A1   29 A1                 
  0.303   0.325   0.327   0.333   0.334   0.354   0.356   0.359
 19 B1   20 B1   30 A1   11 B2   31 A1   32 A1   12 B2   21 B1                 
  0.380   0.382   0.401   0.404   0.416   0.416   0.429   0.435
 33 A1   22 B1   34 A1   23 B1   35 A1    5 A2   36 A1   24 B1                 
  0.446   0.463   0.468   0.499   0.512   0.536   0.561   0.567
 13 B2    6 A2   25 B1    7 A2   37 A1   14 B2   38 A1   26 B1                 
  0.571   0.579   0.581   0.585   0.599   0.613   0.640   0.641
 39 A1   27 B1   40 A1   15 B2    8 A2   41 A1   42 A1   16 B2                 
  0.642   0.668   0.671   0.674   0.677   0.683   0.703   0.713
 28 B1   43 A1   29 B1   44 A1   17 B2   30 B1   45 A1   31 B1                 
  0.733   0.735   0.762   0.763   0.766   0.771   0.796   0.807
 46 A1    9 A2   47 A1   10 A2   32 B1   18 B2   33 B1   48 A1                 
  0.839   0.840   0.855   0.858   0.883   0.900   0.902   0.915
 34 B1   19 B2   49 A1   35 B1   36 B1   50 A1   20 B2   11 A2                 
  0.931   0.940   0.946   0.966   0.968   0.978   0.979   0.988
 12 A2   21 B2   22 B2   23 B2   51 A1   52 A1   37 B1   13 A2                 
  1.006   1.037   1.066   1.093   1.123   1.132   1.148   1.170
 53 A1   54 A1   14 A2   55 A1   24 B2   38 B1   39 B1   40 B1                 
  1.199   1.213   1.276   1.346   1.414   1.420   1.431   1.472
 15 A2   25 B2   56 A1   41 B1   26 B2   16 A2   57 A1   58 A1                 
  1.474   1.477   1.480   1.482   1.520   1.546   1.553   1.555
 17 A2   42 B1   59 A1   27 B2   43 B1   60 A1   44 B1   61 A1                 
  1.600   1.601   1.608   1.624   1.640   1.648   1.649   1.659
 28 B2   45 B1   62 A1   63 A1   64 A1   46 B1   65 A1   47 B1                 
  1.698   1.706   1.708   1.740   1.774   1.776   1.825   1.878
 18 A2   19 A2   29 B2   30 B2   48 B1   66 A1   49 B1   67 A1                 
  1.885   1.898   1.931   1.936   1.941   1.955   1.956   2.016
 20 A2   68 A1   31 B2   50 B1   69 A1   51 B1   70 A1   32 B2                 
  2.036   2.043   2.095   2.111   2.113   2.126   2.185   2.194
 71 A1   52 B1   33 B2   53 B1   21 A2   72 A1   34 B2   22 A2                 
  2.198   2.241   2.270   2.274   2.288   2.333   2.335   2.364
 73 A1   54 B1   74 A1   55 B1   35 B2   56 B1   75 A1   23 A2                 
  2.381   2.413   2.443   2.608   2.629   2.709   2.784   2.801
 76 A1   57 B1   77 A1   24 A2   36 B2   58 B1   78 A1   79 A1                 
  2.806   2.914   2.925   2.965   3.109   3.128   3.171   3.182
 59 B1   60 B1   80 A1   81 A1   82 A1   61 B1   62 B1   83 A1                 
  3.335   3.429   3.590   3.820   4.570
 63 B1   84 A1   64 B1   85 A1   86 A1                                         

 Beta MOs, Restricted
 -- Occupied --                  
-104.84  -11.31  -11.26  -11.26  -11.26  -11.26  -11.25  -10.57
  1 A1    2 A1    3 A1    1 B1    4 A1    2 B1    5 A1    6 A1                 
 -8.034  -8.031  -8.031  -1.197  -1.125  -1.036  -1.001  -0.850
  7 A1    3 B1    1 B2    8 A1    9 A1    4 B1   10 A1    5 B1                 
 -0.823  -0.714  -0.651  -0.650  -0.606  -0.592  -0.547  -0.518
 11 A1   12 A1   13 A1    6 B1    7 B1   14 A1    2 B2    8 B1                 
 -0.514  -0.471  -0.456  -0.353  -0.337
 15 A1    3 B2    9 B1    1 A2    4 B2                                         
 -- Virtual --                   
  0.033   0.040   0.046   0.059   0.063   0.093   0.096   0.098
 16 A1   10 B1   17 A1   11 B1   18 A1    5 B2    2 A2   19 A1                 
  0.118   0.119   0.132   0.138   0.144   0.144   0.146   0.149
  6 B2   20 A1   12 B1    3 A2   21 A1   13 B1    7 B2   22 A1                 
  0.160   0.162   0.172   0.179   0.179   0.181   0.192   0.192
 23 A1   14 B1   24 A1   15 B1    8 B2   25 A1   16 B1    4 A2                 
  0.202   0.205   0.218   0.222   0.264   0.268   0.288   0.297
  9 B2   10 B2   26 A1   17 B1   27 A1   18 B1   28 A1   29 A1                 
  0.303   0.325   0.327   0.333   0.334   0.354   0.356   0.359
 19 B1   20 B1   30 A1   11 B2   31 A1   32 A1   12 B2   21 B1                 
  0.380   0.382   0.401   0.404   0.416   0.416   0.429   0.435
 33 A1   22 B1   34 A1   23 B1   35 A1    5 A2   36 A1   24 B1                 
  0.446   0.463   0.468   0.499   0.512   0.536   0.561   0.567
 13 B2    6 A2   25 B1    7 A2   37 A1   14 B2   38 A1   26 B1                 
  0.571   0.579   0.581   0.585   0.599   0.613   0.640   0.641
 39 A1   27 B1   40 A1   15 B2    8 A2   41 A1   42 A1   16 B2                 
  0.642   0.668   0.671   0.674   0.677   0.683   0.703   0.713
 28 B1   43 A1   29 B1   44 A1   17 B2   30 B1   45 A1   31 B1                 
  0.733   0.735   0.762   0.763   0.766   0.771   0.796   0.807
 46 A1    9 A2   47 A1   10 A2   32 B1   18 B2   33 B1   48 A1                 
  0.839   0.840   0.855   0.858   0.883   0.900   0.902   0.915
 34 B1   19 B2   49 A1   35 B1   36 B1   50 A1   20 B2   11 A2                 
  0.931   0.940   0.946   0.966   0.968   0.978   0.979   0.988
 12 A2   21 B2   22 B2   23 B2   51 A1   52 A1   37 B1   13 A2                 
  1.006   1.037   1.066   1.093   1.123   1.132   1.148   1.170
 53 A1   54 A1   14 A2   55 A1   24 B2   38 B1   39 B1   40 B1                 
  1.199   1.213   1.276   1.346   1.414   1.420   1.431   1.472
 15 A2   25 B2   56 A1   41 B1   26 B2   16 A2   57 A1   58 A1                 
  1.474   1.477   1.480   1.482   1.520   1.546   1.553   1.555
 17 A2   42 B1   59 A1   27 B2   43 B1   60 A1   44 B1   61 A1                 
  1.600   1.601   1.608   1.624   1.640   1.648   1.649   1.659
 28 B2   45 B1   62 A1   63 A1   64 A1   46 B1   65 A1   47 B1                 
  1.698   1.706   1.708   1.740   1.774   1.776   1.825   1.878
 18 A2   19 A2   29 B2   30 B2   48 B1   66 A1   49 B1   67 A1                 
  1.885   1.898   1.931   1.936   1.941   1.955   1.956   2.016
 20 A2   68 A1   31 B2   50 B1   69 A1   51 B1   70 A1   32 B2                 
  2.036   2.043   2.095   2.111   2.113   2.126   2.185   2.194
 71 A1   52 B1   33 B2   53 B1   21 A2   72 A1   34 B2   22 A2                 
  2.198   2.241   2.270   2.274   2.288   2.333   2.335   2.364
 73 A1   54 B1   74 A1   55 B1   35 B2   56 B1   75 A1   23 A2                 
  2.381   2.413   2.443   2.608   2.629   2.709   2.784   2.801
 76 A1   57 B1   77 A1   24 A2   36 B2   58 B1   78 A1   79 A1                 
  2.806   2.914   2.925   2.965   3.109   3.128   3.171   3.182
 59 B1   60 B1   80 A1   81 A1   82 A1   61 B1   62 B1   83 A1                 
  3.335   3.429   3.590   3.820   4.570
 63 B1   84 A1   64 B1   85 A1   86 A1                                         
 --------------------------------------------------------------

          Ground-State Mulliken Net Atomic Charges

     Atom                 Charge (a.u.)
  ----------------------------------------
      1 H                    -0.379534
      2 C                     0.345780
      3 C                     0.859259
      4 H                    -0.436506
      5 C                     0.179906
      6 H                    -0.435123
      7 C                     0.859259
      8 H                    -0.436506
      9 C                     0.345780
     10 H                    -0.379534
     11 C                    -0.148725
     12 Cl                   -0.374055
  ----------------------------------------
  Sum of atomic charges =    -0.000000

 -----------------------------------------------------------------
                    Cartesian Multipole Moments
 -----------------------------------------------------------------
    Charge (ESU x 10^10)
                -0.0000
    Dipole Moment (Debye)
         X      -0.0000      Y       0.0000      Z      -1.9374
       Tot       1.9374
    Quadrupole Moments (Debye-Ang)
        XX     -42.4715     XY       0.0000     YY     -52.7233
        XZ       0.0000     YZ       0.0000     ZZ     -46.6114
    Octopole Moments (Debye-Ang^2)
       XXX      -0.0000    XXY      -0.0000    XYY      -0.0000
       YYY       0.0000    XXZ      -1.1876    XYZ       0.0000
       YYZ       7.5478    XZZ      -0.0000    YZZ       0.0000
       ZZZ      -5.3097
    Hexadecapole Moments (Debye-Ang^3)
      XXXX    -275.7947   XXXY      -0.0000   XXYY     -69.1443
      XYYY       0.0000   YYYY     -63.6648   XXXZ       0.0000
      XXYZ       0.0000   XYYZ       0.0000   YYYZ       0.0000
      XXZZ    -181.0102   XYZZ       0.0000   YYZZ    -165.1724
      XZZZ       0.0000   YZZZ      -0.0000   ZZZZ    -785.7333
 -----------------------------------------------------------------
Archival summary:
1\1\Annas-MacBook-Pro-3.local\SP\ProcedureUnspecified\BasisUnspecified\l165\ThuSep608:09:292018ThuSep608:09:292018\0\\#,ProcedureUnspecified,BasisUnspecified,\\0,1\Cl\C,1,1.73093\C,2,1.39121,1,119.398\H,3,1.08039,2,119.798,1,0,0\C,2,1.39121,1,119.398,3,-180,0\H,5,1.08039,2,119.798,1,0,0\C,3,1.39191,2,119.079,1,-180,0\H,7,1.08135,3,119.367,2,180,0\C,5,1.39191,2,119.079,1,180,0\H,9,1.08135,5,119.367,2,-180,0\C,7,1.39245,3,120.451,2,0,0\H,11,1.08085,7,120.132,3,-180,0\\HF=-689.650492\\@

 Total job time:  12431.11s(wall), 12915.37s(cpu) 
 Thu Sep  6 08:09:29 2018

        *************************************************************
        *                                                           *
        *  Thank you very much for using Q-Chem.  Have a nice day.  *
        *                                                           *
        *************************************************************


