Q-Chem Developer Version!
                  Welcome to Q-Chem
     A Quantum Leap Into The Future Of Chemistry


 Q-Chem 5.1, Q-Chem, Inc., Pleasanton, CA (2018)

 Yihan Shao,  Zhengting Gan,  E. Epifanovsky,  A. T. B. Gilbert,  M. Wormit,  
 J. Kussmann,  A. W. Lange,  A. Behn,  Jia Deng,  Xintian Feng,  D. Ghosh,  
 M. Goldey,  P. R. Horn,  L. D. Jacobson,  I. Kaliman,  T. Kus,  A. Landau,  
 Jie Liu,  E. I. Proynov,  R. M. Richard,  R. P. Steele,  E. J. Sundstrom,  
 H. L. Woodcock III,  P. M. Zimmerman,  D. Zuev,  B. Albrecht,  E. Alguire,  
 S. A. Baeppler,  D. Barton,  Z. Benda,  Y. A. Bernard,  E. J. Berquist,  
 K. B. Bravaya,  H. Burton,  D. Casanova,  Chun-Min Chang,  Yunqing Chen,  
 A. Chien,  K. D. Closser,  M. P. Coons,  S. Coriani,  S. Dasgupta,  
 A. L. Dempwolff,  M. Diedenhofen,  Hainam Do,  R. G. Edgar,  Po-Tung Fang,  
 S. Faraji,  S. Fatehi,  Qingguo Feng,  K. D. Fenk,  J. Fosso-Tande,  
 Qinghui Ge,  A. Ghysels,  G. Gidofalvi,  J. Gomes,  J. Gonthier,  A. Gunina,  
 D. Hait,  M. W. D. Hanson-Heine,  P. H. P. Harbach,  A. W. Hauser,  
 J. E. Herr,  E. G. Hohenstein,  Z. C. Holden,  Kerwin Hui,  B. C. Huynh,  
 T.-C. Jagau,  Hyunjun Ji,  B. Kaduk,  K. Khistyaev,  Jaehoon Kim,  
 P. Klunzinger,  K. Koh,  D. Kosenkov,  L. Koulias,  T. Kowalczyk,  
 C. M. Krauter,  A. Kunitsa,  Ka Un Lao,  A. Laurent,  K. V. Lawler,  
 Joonho Lee,  D. Lefrancois,  S. Lehtola,  D. S. Levine,  Yi-Pei Li,  
 You-Sheng Lin,  Fenglai Liu,  E. Livshits,  A. Luenser,  P. Manohar,  
 E. Mansoor,  S. F. Manzer,  Shan-Ping Mao,  Yuezhi Mao,  N. Mardirossian,  
 A. V. Marenich,  T. Markovich,  L. A. Martinez-Martinez,  S. A. Maurer,  
 N. J. Mayhall,  S. C. McKenzie,  J.-M. Mewes,  A. F. Morrison,  
 J. W. Mullinax,  K. Nanda,  T. S. Nguyen-Beck,  R. Olivares-Amaya,  
 J. A. Parkhill,  T. M. Perrine,  F. Plasser,  P. Pokhilko,  S. Prager,  
 A. Prociuk,  E. Ramos,  D. R. Rehn,  F. Rob,  M. Schneider,  N. Sergueev,  
 S. M. Sharada,  S. Sharma,  D. W. Small,  T. Stauch,  T. Stein,  
 Yu-Chuan Su,  A. J. W. Thom,  A. Tkatchenko,  T. Tsuchimochi,  N. M. Tubman,  
 L. Vogt,  M. L. Vidal,  O. Vydrov,  M. A. Watson,  J. Wenzel,  
 M. de Wergifosse,  T. A. Wesolowski,  A. White,  J. Witte,  A. Yamada,  
 Jun Yang,  K. Yao,  S. Yeganeh,  S. R. Yost,  Zhi-Qiang You,  A. Zech,  
 Igor Ying Zhang,  Xing Zhang,  Yan Zhao,  Ying Zhu,  B. R. Brooks,  
 G. K. L. Chan,  C. J. Cramer,  M. S. Gordon,  W. J. Hehre,  A. Klamt,  
 M. W. Schmidt,  C. D. Sherrill,  D. G. Truhlar,  A. Aspuru-Guzik,  R. Baer,  
 A. T. Bell,  N. A. Besley,  Jeng-Da Chai,  A. E. DePrince, III,  
 R. A. DiStasio Jr.,  A. Dreuw,  B. D. Dunietz,  T. R. Furlani,  
 Chao-Ping Hsu,  Yousung Jung,  Jing Kong,  D. S. Lambrecht,  WanZhen Liang,  
 C. Ochsenfeld,  V. A. Rassolov,  L. V. Slipchenko,  J. E. Subotnik,  
 T. Van Voorhis,  J. M. Herbert,  A. I. Krylov,  P. M. W. Gill,  M. Head-Gordon

 Contributors to earlier versions of Q-Chem not listed above: 
 R. D. Adamson,  B. Austin,  J. Baker,  G. J. O. Beran,  K. Brandhorst,  
 S. T. Brown,  E. F. C. Byrd,  A. K. Chakraborty,  C.-L. Cheng,  
 Siu Hung Chien,  D. M. Chipman,  D. L. Crittenden,  H. Dachsel,  
 R. J. Doerksen,  A. D. Dutoi,  L. Fusti-Molnar,  W. A. Goddard III,  
 A. Golubeva-Zadorozhnaya,  S. R. Gwaltney,  G. Hawkins,  A. Heyden,  
 S. Hirata,  G. Kedziora,  F. J. Keil,  C. Kelley,  Jihan Kim,  R. A. King,  
 R. Z. Khaliullin,  P. P. Korambath,  W. Kurlancheek,  A. M. Lee,  M. S. Lee,  
 S. V. Levchenko,  Ching Yeh Lin,  D. Liotard,  R. C. Lochan,  I. Lotan,  
 P. E. Maslen,  N. Nair,  D. P. O'Neill,  D. Neuhauser,  E. Neuscamman,  
 C. M. Oana,  R. Olson,  B. Peters,  R. Peverati,  P. A. Pieniazek,  
 Y. M. Rhee,  J. Ritchie,  M. A. Rohrdanz,  E. Rosta,  N. J. Russ,  
 H. F. Schaefer III,  N. E. Schultz,  N. Shenvi,  A. C. Simmonett,  A. Sodt,  
 D. Stuck,  K. S. Thanthiriwatte,  V. Vanovschi,  Tao Wang,  A. Warshel,  
 C. F. Williams,  Q. Wu,  X. Xu,  W. Zhang

 Please cite Q-Chem as follows:
 Y. Shao et al., Mol. Phys. 113, 184-215 (2015)
 DOI: 10.1080/00268976.2014.952696

 Q-Chem 5.1.1 for Intel X86 EM64T Linux

 Parts of Q-Chem use Armadillo 8.300.2 (Tropical Shenanigans).
 http://arma.sourceforge.net/

 Q-Chem begins on Mon Oct 15 06:55:05 2018  

node24
Host: 0

     Scratch files written to /scratch/krylov/qchem8848//
Core orbitals will be frozen
Input Ideriv = 0
Curr. Ideriv = -1
Max.  Ideriv = 0

Checking the input file for inconsistencies... 	...done.

--------------------------------------------------------------
User input:
--------------------------------------------------------------
$comment
Optimized Cl-Bz, XAS
Cation spectra at neutral geom using 6-311(2+,+)Gss with unconttracted core on C and Cl
$end

$molecule
+1 2
 H        -2.1400320233    0.0000000000    0.5090177858
 C        -1.2120583232    0.0000000000   -0.0442490642
 C        -1.2042956497    0.0000000000   -1.4361358281
 H        -2.1437187877    0.0000000000   -1.9716770234
 C         0.0000000000    0.0000000000   -2.1351330277
 H         0.0000000000    0.0000000000   -3.2159870334
 C         1.2042956497    0.0000000000   -1.4361358281
 H         2.1437187877    0.0000000000   -1.9716770234
 C         1.2120583232    0.0000000000   -0.0442490642
 H         2.1400320233    0.0000000000    0.5090177858
 C         0.0000000000    0.0000000000    0.6386615242
 Cl        0.0000000000    0.0000000000    2.3695929760
$end

$rem
   JOB_TYPE  =  SP
   BASIS  =  general
   METHOD  =  EOM-CCSD
   CVS_EE_STATES = [5,0,5,5]   bright transitions only
   CC_MEMORY = 100000
   cc_trans_prop = 1
   EOM_DAVIDSON_MAXVECTORS = 120
   eom_shift = 07277  198 eV
$end


$basis
H    0
S    3    1.000000
   3.38650000E+01    2.54938000E-02 
   5.09479000E+00    1.90373000E-01 
   1.15879000E+00    8.52161000E-01 
S    1    1.000000
   3.25840000E-01    1.00000000E+00 
S    1    1.000000
   1.02741000E-01    1.00000000E+00 
S    1    1.000000
   3.60000000E-02    1.00000000E+00 
P    1    1.000000
   7.50000000E-01    1.00000000E+00 
****
C    0
S    1    1.000000
   4.56324000E+03    1.96665000E-03 
S    1    1.000000
   6.82024000E+02    1.52306000E-02 
S    1    1.000000
   1.54973000E+02    7.61269000E-02 
S    1    1.000000
   4.44553000E+01    2.60801000E-01 
S    1    1.000000
   1.30290000E+01    6.16462000E-01 
S    1    1.000000
   1.82773000E+00    2.21006000E-01 
SP   3    1.000000
   2.09642000E+01    1.14660000E-01   4.02487000E-02 
   4.80331000E+00    9.19999000E-01   2.37594000E-01 
   1.45933000E+00   -3.03068000E-03   8.15854000E-01 
SP   1    1.000000
   4.83456000E-01    1.00000000E+00   1.00000000E+00 
SP   1    1.000000
   1.45585000E-01    1.00000000E+00   1.00000000E+00 
SP   1    1.000000
   4.38000000E-02    1.00000000E+00   1.00000000E+00 
SP   1    1.000000
   1.31927711E-02    1.00000000E+00   1.00000000E+00 
D    1    1.000000
   6.26000000E-01    1.00000000E+00 
****
Cl   0
S    1    1.000000
   1.05819000E+05    7.38000000E-04 
S    1    1.000000
   1.58720000E+04    5.71800000E-03 
S    1    1.000000
   3.61965000E+03    2.94950000E-02 
S    1    1.000000
   1.03080000E+03    1.17286000E-01 
S    1    1.000000
   3.39908000E+02    3.62949000E-01 
S    1    1.000000
   1.24538000E+02    5.84149000E-01 
S    3    1.000000
   1.24538000E+02    1.34177000E-01 
   4.95135000E+01    6.24250000E-01 
   2.08056000E+01    2.91756000E-01 
S    1    1.000000
   6.58346000E+00    1.00000000E+00 
S    1    1.000000
   2.56468000E+00    1.00000000E+00 
S    1    1.000000
   5.59763000E-01    1.00000000E+00 
S    1    1.000000
   1.83273000E-01    1.00000000E+00 
P    1    1.000000
   5.89776000E+02    2.39100000E-03 
P    1    1.000000
   1.39849000E+02    1.85040000E-02 
P    1    1.000000
   4.51413000E+01    8.13770000E-02 
P    1    1.000000
   1.68733000E+01    2.21552000E-01 
P    1    1.000000
   6.74110000E+00    7.72569000E-01 
P    2    1.000000
   6.74110000E+00   -1.57224400E+00 
   2.77152000E+00    9.92389000E-01 
P    1    1.000000
   1.02387000E+00    1.00000000E+00 
P    1    1.000000
   3.81368000E-01    1.00000000E+00 
P    1    1.000000
   1.09437000E-01    1.00000000E+00 
SP   1    1.000000
   4.83000000E-02    1.00000000E+00   1.00000000E+00 
SP   1    1.000000
   1.45481928E-02    1.00000000E+00   1.00000000E+00 
D    1    1.000000
   7.50000000E-01    1.00000000E+00 
****
$end

--------------------------------------------------------------
 ----------------------------------------------------------------
             Standard Nuclear Orientation (Angstroms)
    I     Atom           X                Y                Z
 ----------------------------------------------------------------
    1      H      -2.1400320233     0.0000000000     0.3814604176
    2      C      -1.2120583232     0.0000000000    -0.1718064324
    3      C      -1.2042956497     0.0000000000    -1.5636931963
    4      H      -2.1437187877     0.0000000000    -2.0992343916
    5      C      -0.0000000000     0.0000000000    -2.2626903959
    6      H      -0.0000000000     0.0000000000    -3.3435444016
    7      C       1.2042956497     0.0000000000    -1.5636931963
    8      H       2.1437187877     0.0000000000    -2.0992343916
    9      C       1.2120583232    -0.0000000000    -0.1718064324
   10      H       2.1400320233    -0.0000000000     0.3814604176
   11      C       0.0000000000    -0.0000000000     0.5111041560
   12      Cl      0.0000000000    -0.0000000000     2.2420356078
 ----------------------------------------------------------------
 Molecular Point Group                 C2v   NOp =  4
 Largest Abelian Subgroup              C2v   NOp =  4
 Nuclear Repulsion Energy =   316.4076139427 hartrees
 There are       29 alpha and       28 beta electrons

 Q-Chem warning in module forms1/BasisType.C, line 1703:

 Setting pure/cartesian flag to 2111 for general basis


 Requested basis set is non-standard
 There are 120 shells and 272 basis functions
MEM_TOTAL is adjusted to CC_MEMORY + MEM_STATIC!
 Total memory of 100192MB is distributed as follows: 
   QALLOC including MEM_STATIC uses 192MB
   MEM_STATIC is set to 192MB
   CCMAN JOB total memory use is  100000MB
 Warning: actual memory use might exceed 100192MB

 Total QAlloc Memory Limit    192 MB
 Mega-Array Size       188 MB
 MEM_STATIC part       192 MB

                       Distance Matrix (Angstroms)
             H (  1)   C (  2)   C (  3)   H (  4)   C (  5)   H (  6)
   C (  2)  1.080389
   C (  3)  2.158524  1.391908
   H (  4)  2.480698  2.140787  1.081351
   C (  5)  3.401657  2.416791  1.392453  2.149941
   H (  6)  4.295975  3.395439  2.148999  2.478677  1.080854
   C (  7)  3.868869  2.788569  2.408591  3.390576  1.392453  2.148999
   H (  8)  4.950189  3.869912  3.390576  4.287438  2.149941  2.478677
   C (  9)  3.397442  2.424117  2.788569  3.869912  2.416791  3.395439
   H ( 10)  4.280064  3.397442  3.868869  4.950189  3.401657  4.295975
   C ( 11)  2.143955  1.391205  2.398981  3.377780  2.773795  3.854649
   Cl( 12)  2.835750  2.701059  3.991729  4.841710  4.504726  5.585580
             C (  7)   H (  8)   C (  9)   H ( 10)   C ( 11)
   H (  8)  1.081351
   C (  9)  1.391908  2.140787
   H ( 10)  2.158524  2.480698  1.080389
   C ( 11)  2.398981  3.377780  1.391205  2.143955
   Cl( 12)  3.991729  4.841710  2.701059  2.835750  1.730931

 A cutoff of  1.0D-14 yielded   5925 shell pairs
 There are     34620 function pairs (     36530 Cartesian)

 -------------------------------------------------------
 OpenMP Integral Computing Module                       
 Release: version 1.0, May 2013, Q-Chem Inc. Pittsburgh 
 -------------------------------------------------------
 Integral Job Info:
 Integral job number is                      11
 Integral operator is                         1
 short-range coefficients                     0
 long-range coefficients              100000000
 Omega coefficients                           0
 if combine SR and LR in K                    0
 Integral screening is                        0
 Integral computing path is                   2
 max size of driver memory is            800000
 size of driver memory is                593474
 size of scratch memory is              1367512
 max col of scratch BK array               1296
 max len of scratch array in speh3          155
 max len of scratch index in speh4           18
 max int batch size is                      520
 min int batch size is                       52
 fixed nKL is                                52
 max L of basis functions is                  2
 order of int derivative is                   0
 number of shells is                        120
 number of basis is                         279
 number of cartesian basis is               279
 number of contracted shell pairs          5925
 number of primitive shell pairs           7829
 maxK2 (contraction) of shell pair            9
 max number of K2 of shell pair               1
 max number of CS2 of shell pair           1679
 max number of PS2 of shell pair           1679
 mem total for path MDJ                  543004
 -------------------------------------------------------
 Smallest overlap matrix eigenvalue = 1.05E-08
 Linear dependence detected in AO basis
 Tighter screening thresholds may be required for diffuse basis sets
 Use S2THRESH > 14 and THRESH = 14 in case of SCF convergence issues
 Number of orthogonalized atomic orbitals = 265
 Maximum deviation from orthogonality = 3.105E-10

 Scale SEOQF with 1.000000e-01/1.000000e-01/1.000000e-01

 Standard Electronic Orientation quadrupole field applied
 Nucleus-field energy     =    -0.0000000161 hartrees
 Guess MOs from core Hamiltonian diagonalization

 -----------------------------------------------------------------------
  General SCF calculation program by
  Eric Jon Sundstrom, Paul Horn, Yuezhi Mao, Dmitri Zuev, Alec White,
  David Stuck, Shaama M.S., Shane Yost, Joonho Lee, David Small,
  Daniel Levine, Susi Lehtola, Hugh Burton, Evgeny Epifanovsky
 -----------------------------------------------------------------------
 Hartree-Fock
 using 8 threads for integral computing
 -------------------------------------------------------
 OpenMP Integral computing Module                
 Release: version 2.0, May 2017, Q-Chem Inc. Pleasanton 
 -------------------------------------------------------
 A unrestricted SCF calculation will be
 performed using DIIS
 SCF converges when DIIS error is below 1.0e-08
 ---------------------------------------
  Cycle       Energy         DIIS error
 ---------------------------------------
    1    -540.0628322810      1.25e-01  
    2    -379.1767407580      4.79e-02  
    3    -436.6262394556      8.80e-02  
    4    -516.8695897388      7.04e-02  
    5    -570.8908809905      5.50e-02  
    6    -635.8757081658      3.78e-02  
    7    -673.9503902989      2.41e-02  
    8    -680.2338042663      1.49e-02  
    9    -688.7348328072      5.05e-03  
   10    -689.1285451350      2.61e-03  
   11    -689.3638471514      5.59e-04  
   12    -689.3809576044      1.33e-04  
   13    -689.3828476813      1.01e-04  
   14    -689.3835594360      5.81e-05  
   15    -689.3842786419      2.77e-05  
   16    -689.3845372478      1.84e-05  
   17    -689.3846815492      1.54e-05  
   18    -689.3847838678      1.49e-05  
   19    -689.3848615082      1.47e-05  
   20    -689.3849810179      1.44e-05  
   21    -689.3852821979      1.32e-05  
   22    -689.3859245094      8.43e-06  
   23    -689.3857683283      8.82e-06  
   24    -689.3859339806      1.57e-06  
   25    -689.3859345474      8.80e-07  
   26    -689.3859353255      3.97e-07  
   27    -689.3859354826      2.21e-07  
   28    -689.3859355354      3.39e-08  
   29    -689.3859355492      1.28e-08  
   30    -689.3859355329      1.31e-08  
   31    -689.3859355352      3.83e-09  Convergence criterion met
 ---------------------------------------
 SCF time:   CPU 233.81s  wall 33.00s 
<S^2> =          0.921324230
 SCF   energy in the final basis set =     -689.3859355352
 Total energy in the final basis set =     -689.3859355352


 ------------------------------------------------------------------------------

   CCMAN2: suite of methods based on coupled cluster
           and equation of motion theories.

   Components:
   * libvmm-1.3-trunk
     by Evgeny Epifanovsky, Ilya Kaliman.
   * libtensor-2.5-trunk
     by Evgeny Epifanovsky, Michael Wormit, Dmitry Zuev, Sam Manzer, 
        Ilya Kaliman.
   * libcc-2.5-trunk
     by Evgeny Epifanovsky, Arik Landau, Tomasz Kus, Kirill Khistyaev, 
        Dmitry Zuev, Prashant Manohar, Xintian Feng, Anna Krylov, 
        Matthew Goldey, Alec White, Thomas Jagau, Kaushik Nanda, 
        Anastasia Gunina, Alexander Kunitsa, Joonho Lee.

   CCMAN original authors:
   Anna I. Krylov, C. David Sherrill, Steven R. Gwaltney,
   Edward F. C. Byrd (2000)
   Sergey V. Levchenko, Lyudmila V. Slipchenko, Tao Wang,
   Ana-Maria C. Cristian (2003)
   Piotr A. Pieniazek, C. Melania Oana, Evgeny Epifanovsky (2007)
   Prashant Manohar (2009)

 ------------------------------------------------------------------------------


 Allocating and initializing 100000MB of RAM...
 Calculation will run on 8 cores.


 Alpha MOs, Unrestricted
 -- Occupied --                  
-105.06  -11.58  -11.48  -11.48  -11.48  -11.46  -11.46  -10.78
  1 A1    2 A1    3 A1    1 B1    4 A1    2 B1    5 A1    6 A1                 
 -8.251  -8.249  -8.247  -1.435  -1.345  -1.252  -1.239  -1.070
  1 B2    7 A1    3 B1    8 A1    9 A1    4 B1   10 A1    5 B1                 
 -1.041  -0.929  -0.875  -0.854  -0.815  -0.814  -0.792  -0.730
 11 A1   12 A1    6 B1   13 A1   14 A1    7 B1    2 B2    8 B1                 
 -0.725  -0.689  -0.662  -0.597  -0.564
 15 A1    3 B2    9 B1    4 B2    1 A2                                         
 -- Virtual --                   
 -0.126  -0.089  -0.087  -0.069  -0.069  -0.066  -0.053  -0.051
  5 B2    2 A2   16 A1   10 B1   17 A1    6 B2   18 A1   19 A1                 
 -0.049  -0.045  -0.045  -0.033  -0.027  -0.027  -0.024  -0.023
 11 B1    3 A2    7 B2   20 A1   21 A1   12 B1   22 A1   13 B1                 
 -0.023  -0.022  -0.020  -0.020  -0.010  -0.008  -0.008  -0.005
  8 B2    4 A2   23 A1    9 B2   14 B1   24 A1   25 A1   15 B1                 
 -0.003   0.002   0.002   0.013   0.014   0.027   0.029   0.038
 10 B2   26 A1   16 B1   27 A1   17 B1   11 B2   28 A1   29 A1                 
  0.042   0.046   0.050   0.065   0.072   0.072   0.085   0.090
 12 B2    5 A2   18 B1   30 A1   31 A1   13 B2   19 B1   32 A1                 
  0.092   0.093   0.095   0.099   0.108   0.109   0.113   0.121
  6 A2   20 B1   14 B2   15 B2   33 A1   21 B1   22 B1   34 A1                 
  0.126   0.133   0.147   0.150   0.151   0.163   0.163   0.179
 35 A1   23 B1   36 A1   37 A1   24 B1   16 B2   38 A1   25 B1                 
  0.200   0.210   0.231   0.243   0.246   0.262   0.265   0.315
 26 B1   39 A1   40 A1   41 A1   27 B1   28 B1   42 A1   43 A1                 
  0.333   0.341   0.350   0.447   0.449   0.467   0.476   0.479
 29 B1   44 A1   30 B1   45 A1   31 B1   32 B1   17 B2   46 A1                 
  0.536   0.538   0.542   0.549   0.559   0.567   0.578   0.603
 47 A1   18 B2   33 B1   48 A1   34 B1   19 B2    7 A2   35 B1                 
  0.612   0.613   0.636   0.684   0.689   0.706   0.745   0.747
 20 B2   49 A1    8 A2   50 A1   21 B2   51 A1   52 A1   36 B1                 
  0.757   0.774   0.829   0.830   0.844   0.850   0.873   0.885
 37 B1   53 A1   54 A1   38 B1   22 B2   55 A1   56 A1   39 B1                 
  0.893   0.901   0.924   0.931   0.968   0.991   1.003   1.015
 57 A1   40 B1    9 A2   41 B1   58 A1   42 B1   10 A2   23 B2                 
  1.017   1.061   1.102   1.135   1.155   1.237   1.265   1.281
 59 A1   60 A1   11 A2   24 B2   12 A2   61 A1   43 B1   62 A1                 
  1.353   1.455   1.519   1.558   1.583   1.618   1.625   1.631
 25 B2   63 A1   44 B1   64 A1   45 B1   13 A2   26 B2   65 A1                 
  1.673   1.707   1.711   1.749   1.787   1.808   1.845   1.908
 27 B2   66 A1   46 B1   67 A1   47 B1   28 B2   14 A2   48 B1                 
  1.961   1.985   2.001   2.020   2.027   2.038   2.063   2.112
 68 A1   15 A2   29 B2   49 B1   69 A1   50 B1   30 B2   70 A1                 
  2.135   2.159   2.167   2.338   2.369   2.411   2.421   2.532
 51 B1   16 A2   71 A1   31 B2   52 B1   32 B2   17 A2   53 B1                 
  2.537   2.597   2.603   2.624   2.656   2.728   2.769   2.802
 72 A1   54 B1   73 A1   74 A1   55 B1   75 A1   76 A1   77 A1                 
  2.822   2.833   2.836   2.843   2.855   2.952   2.978   2.992
 56 B1   33 B2   78 A1   79 A1   57 B1   34 B2   18 A2   80 A1                 
  2.996   3.041   3.076   3.114   3.244   3.341   3.386   3.527
 58 B1   35 B2   19 A2   59 B1   36 B2   60 B1   81 A1   61 B1                 
  3.569   3.690   3.705   3.803   3.960   4.177   4.229   4.296
 82 A1   62 B1   83 A1   84 A1   85 A1   63 B1   86 A1   64 B1                 
  4.298   4.899   5.034   5.210   5.227   5.517   5.562   5.963
 87 A1   88 A1   65 B1   89 A1   66 B1   90 A1   67 B1   91 A1                 
  9.425   9.498   9.582  10.216  20.393  20.466  20.493  20.594
 37 B2   68 B1   92 A1   93 A1   94 A1   95 A1   69 B1   96 A1                 
 20.637  20.905  32.799  32.855  32.930  79.957  80.038  80.068
 70 B1   97 A1   38 B2   71 B1   98 A1   99 A1  100 A1   72 B1                 
 80.152  80.191  80.393 106.666 106.710 106.772 115.844 321.796
101 A1   73 B1  102 A1   39 B2   74 B1  103 A1  104 A1  105 A1                 
321.876 321.905 321.975 322.009 322.172 364.764 364.797 364.846
106 A1   75 B1  107 A1   76 B1  108 A1   40 B2   77 B1  109 A1                 
610.1681431.3631431.4401431.4661431.5241431.5551431.6901551.416
110 A1  111 A1  112 A1   78 B1  113 A1   79 B1  114 A1   41 B2                 
*******1551.4742284.9118391.6898749.5978749.6738749.6968749.740
 80 B1  115 A1  116 A1  117 A1  118 A1  119 A1   81 B1  120 A1                 
*******8749.876****************
 82 B1  121 A1  122 A1  123 A1                                                 

 Beta MOs, Unrestricted
 -- Occupied --                  
-105.06  -11.57  -11.47  -11.47  -11.47  -11.47  -11.47  -10.78
  1 A1    2 A1    1 B1    3 A1    4 A1    2 B1    5 A1    6 A1                 
 -8.250  -8.246  -8.243  -1.408  -1.332  -1.250  -1.198  -1.063
  7 A1    3 B1    1 B2    8 A1    9 A1    4 B1   10 A1    5 B1                 
 -1.028  -0.923  -0.870  -0.849  -0.814  -0.806  -0.727  -0.724
 11 A1   12 A1    6 B1   13 A1    7 B1   14 A1    8 B1   15 A1                 
 -0.708  -0.658  -0.638  -0.569
  2 B2    9 B1    3 B2    1 A2                                                 
 -- Virtual --                   
 -0.257  -0.086  -0.069  -0.068  -0.068  -0.067  -0.054  -0.053
  4 B2   16 A1   10 B1   17 A1    2 A2    5 B2    6 B2   18 A1                 
 -0.050  -0.049  -0.045  -0.037  -0.033  -0.027  -0.026  -0.024
 19 A1   11 B1    3 A2    7 B2   20 A1   12 B1   21 A1   22 A1                 
 -0.023  -0.022  -0.021  -0.019  -0.018  -0.010  -0.008  -0.006
 13 B1    8 B2    4 A2   23 A1    9 B2   14 B1   24 A1   25 A1                 
 -0.005  -0.003   0.002   0.002   0.014   0.016   0.026   0.031
 15 B1   10 B2   26 A1   16 B1   17 B1   27 A1   11 B2   28 A1                 
  0.040   0.047   0.050   0.054   0.066   0.074   0.083   0.085
 29 A1    5 A2   18 B1   12 B2   30 A1   31 A1   13 B2   19 B1                 
  0.090   0.093   0.095   0.101   0.108   0.109   0.110   0.114
 32 A1   20 B1    6 A2   14 B2   21 B1   15 B2   33 A1   22 B1                 
  0.121   0.129   0.133   0.150   0.151   0.151   0.165   0.179
 34 A1   35 A1   23 B1   36 A1   24 B1   37 A1   38 A1   25 B1                 
  0.185   0.200   0.214   0.231   0.248   0.252   0.263   0.270
 16 B2   26 B1   39 A1   40 A1   27 B1   41 A1   28 B1   42 A1                 
  0.318   0.334   0.345   0.350   0.449   0.451   0.467   0.485
 43 A1   29 B1   44 A1   30 B1   45 A1   31 B1   32 B1   17 B2                 
  0.489   0.537   0.548   0.554   0.557   0.567   0.583   0.600
 46 A1   47 A1   33 B1   18 B2   34 B1   48 A1    7 A2   19 B2                 
  0.605   0.617   0.635   0.643   0.692   0.700   0.710   0.747
 35 B1   49 A1    8 A2   20 B2   50 A1   21 B2   51 A1   52 A1                 
  0.749   0.758   0.781   0.830   0.834   0.853   0.863   0.879
 36 B1   37 B1   53 A1   38 B1   54 A1   55 A1   22 B2   56 A1                 
  0.885   0.901   0.903   0.932   0.939   0.975   0.997   1.019
 39 B1   57 A1   40 B1   41 B1    9 A2   58 A1   42 B1   59 A1                 
  1.024   1.028   1.072   1.105   1.153   1.174   1.245   1.266
 23 B2   10 A2   60 A1   11 A2   24 B2   12 A2   61 A1   43 B1                 
  1.284   1.371   1.463   1.521   1.566   1.584   1.629   1.630
 62 A1   25 B2   63 A1   44 B1   64 A1   45 B1   26 B2   13 A2                 
  1.637   1.686   1.705   1.717   1.758   1.795   1.813   1.845
 65 A1   27 B2   46 B1   66 A1   67 A1   47 B1   28 B2   14 A2                 
  1.908   1.963   2.004   2.008   2.017   2.037   2.038   2.078
 48 B1   68 A1   15 A2   29 B2   49 B1   69 A1   50 B1   30 B2                 
  2.117   2.141   2.163   2.179   2.347   2.371   2.420   2.431
 70 A1   51 B1   16 A2   71 A1   31 B2   52 B1   32 B2   17 A2                 
  2.534   2.542   2.598   2.604   2.625   2.657   2.730   2.773
 53 B1   72 A1   54 B1   73 A1   74 A1   55 B1   75 A1   76 A1                 
  2.802   2.822   2.836   2.844   2.852   2.855   2.973   2.982
 77 A1   56 B1   78 A1   79 A1   33 B2   57 B1   34 B2   18 A2                 
  2.995   2.997   3.068   3.076   3.114   3.255   3.345   3.392
 80 A1   58 B1   35 B2   19 A2   59 B1   36 B2   60 B1   81 A1                 
  3.533   3.569   3.691   3.708   3.806   3.967   4.178   4.234
 61 B1   82 A1   62 B1   83 A1   84 A1   85 A1   63 B1   86 A1                 
  4.300   4.301   4.904   5.040   5.217   5.229   5.527   5.563
 87 A1   64 B1   88 A1   65 B1   89 A1   66 B1   90 A1   67 B1                 
  5.966   9.432   9.499   9.582  10.219  20.397  20.468  20.493
 91 A1   37 B2   68 B1   92 A1   93 A1   94 A1   95 A1   69 B1                 
 20.599  20.637  20.907  32.803  32.856  32.930  79.959  80.039
 96 A1   70 B1   97 A1   38 B2   71 B1   98 A1   99 A1  100 A1                 
 80.068  80.154  80.191  80.393 106.669 106.711 106.772 115.845
 72 B1  101 A1   73 B1  102 A1   39 B2   74 B1  103 A1  104 A1                 
321.797 321.876 321.905 321.975 322.009 322.172 364.765 364.798
105 A1  106 A1   75 B1  107 A1   76 B1  108 A1   40 B2   77 B1                 
364.846 610.1681431.3631431.4401431.4661431.5241431.5551431.690
109 A1  110 A1  111 A1  112 A1   78 B1  113 A1   79 B1  114 A1                 
*******1551.4381551.4742284.9118391.6898749.5978749.6738749.696
 41 B2   80 B1  115 A1  116 A1  117 A1  118 A1  119 A1   81 B1                 
*******8749.7688749.876****************
120 A1   82 B1  121 A1  122 A1  123 A1                                         

 Occupation and symmetry of molecular orbitals

 Point group: C2v (4 irreducible representations).

                           A1   A2   B1   B2    All 
 ----------------------------------------------------
 All molecular orbitals:
  - Alpha                  123  19   82   41    265 
  - Beta                   123  19   82   41    265 
 ----------------------------------------------------
 Alpha orbitals:
  - Frozen occupied        7    0    3    1     11  
  - Active occupied        8    1    6    3     18  
  - Active virtual         108  18   73   37    236 
  - Frozen virtual         0    0    0    0     0   
 ----------------------------------------------------
 Beta orbitals:
  - Frozen occupied        7    0    3    1     11  
  - Active occupied        8    1    6    2     17  
  - Active virtual         108  18   73   38    237 
  - Frozen virtual         0    0    0    0     0   
 ----------------------------------------------------

 Import integrals:   CPU 0.00 s  wall 0.00 s

 Import integrals:   CPU 1599.00 s  wall 231.90 s

 MP2 amplitudes:   CPU 6.85 s  wall 1.39 s

Running a double precision version
           CCSD T amplitudes will be solved using DIIS.

           Start     Size      MaxIter   EConv     TConv     
           3         7         100       1.00e-06  1.00e-04  
 ------------------------------------------------------------------------------
           Energy (a.u.)   Ediff      Tdiff       Comment
 ------------------------------------------------------------------------------
          -690.30471275                           
     1    -690.32239345   1.77e-02   9.41e-01     
     2    -690.35143467   2.90e-02   1.19e-01     
     3    -690.35360768   2.17e-03   4.04e-02     
     4    -690.35741965   3.81e-03   1.62e-02     Switched to DIIS steps.
     5    -690.36017469   2.76e-03   1.61e-02     
     6    -690.36091895   7.44e-04   7.04e-03     
     7    -690.36118887   2.70e-04   3.92e-03     
     8    -690.36126988   8.10e-05   1.37e-03     
     9    -690.36129357   2.37e-05   5.68e-04     
    10    -690.36129359   1.91e-08   2.69e-04     
    11    -690.36129130   2.30e-06   2.12e-04     
    12    -690.36129179   4.93e-07   9.56e-05     
 ------------------------------------------------------------------------------
          -690.36129179                           CCSD T converged.

End of double precision
 SCF energy                 = -689.38593554
 MP2 energy                 = -690.30471275
 CCSD correlation energy     =   -0.97535625
 CCSD total energy           = -690.36129179

 CCSD  T1^2 = 0.0610  T2^2 = 0.3863  Leading amplitudes:

 Amplitude    Orbitals with energies
 -0.1173       2 (B2) B                  ->    4 (B2) B                   
              -0.7084                         -0.2574                     
 -0.1057       1 (A2) A                  ->    2 (A2) A                   
              -0.5644                         -0.0887                     
  0.0803       1 (A2) B                  ->    2 (A2) B                   
              -0.5689                         -0.0677                     
 -0.0767       3 (B2) B                  ->    4 (B2) B                   
              -0.6375                         -0.2574                     

 Amplitude    Orbitals with energies
 -0.0717       1 (A2) A      1 (A2) B    ->    2 (A2) A      2 (A2) B     
              -0.5644       -0.5689           -0.0887       -0.0677       
  0.0717       1 (A2) A      1 (A2) B    ->    2 (A2) B      2 (A2) A     
              -0.5644       -0.5689           -0.0677       -0.0887       
  0.0717       1 (A2) B      1 (A2) A    ->    2 (A2) A      2 (A2) B     
              -0.5689       -0.5644           -0.0887       -0.0677       
 -0.0717       1 (A2) B      1 (A2) A    ->    2 (A2) B      2 (A2) A     
              -0.5689       -0.5644           -0.0677       -0.0887       

 Computing CCSD intemediates for later calculations in double precision
 Finished.

Running a double precision version
           CCSD Lambda amplitudes will be solved using DIIS.
           Start     Size      MaxIter   EConv     LConv     
           3         7         100       1.00e-06  1.00e-04  
 ------------------------------------------------------------------------------
            Enorm      Ldiff       Comment
 ------------------------------------------------------------------------------
     1     7.16e-02   5.04e-02     
     2     1.78e-02   2.67e-03     
     3     8.27e-03   1.22e-03     
     4     4.64e-03   4.39e-04     Switched to DIIS steps.
     5     2.14e-03   1.55e-04     
     6     1.22e-03   5.28e-05     
     7     5.53e-04   1.33e-04     
     8     2.87e-04   5.56e-05     
     9     1.52e-04   9.49e-06     
    10     9.89e-05   7.73e-06     
    11     4.65e-05   1.45e-05     
    12     2.02e-05   8.81e-06     
    13     9.08e-06   2.73e-06     
    14     4.49e-06   1.19e-06     
    15     2.33e-06   4.12e-07     
    16     1.36e-06   1.81e-07     
    17     8.18e-07   1.01e-07     
 ------------------------------------------------------------------------------
                                   CCSD Lambda converged.

 CCSD calculation:   CPU 4287.48 s  wall 585.68 s

        Solving for CVS-EOMEE-CCSD A1 transitions.

        CVS-EOMEE-CCSD/MP2 right amplitudes will be solved using Davidson.
        Amplitudes will be solved using shifted  algorithm.
     Hard-coded thresholds: 
     LinDepThresh=1.00e-15  NormThresh=1.00e-06  ReorthogonThresh=1.00e-02

      Roots     MaxVec    MaxIter   Precond   Conv      Shift    
      5         120       60        1         1.00e-05  7.28e+00  
 ------------------------------------------------------------------------------
      Iter ConvRoots NVecs ResNorm Current eigenvalues (eV)
 ------------------------------------------------------------------------------
      0    0      5     2.98e+00   211.4865   217.1255   219.3747   219.3852   219.8619   
      1    0      10    6.48e+01   209.8219   215.4096   217.8721   217.8827   218.3545   
      2    0      15    8.71e-01   198.5771   203.9920   207.6492   207.6750   208.2620   
      3    0      20    4.55e-02   197.9778   203.1395   206.7026   206.7568   207.5189   
      4    0      25    7.88e-02   197.8688   203.0598   206.4135   206.5166   207.3772   
      5    0      30    2.47e-01   197.8070   203.0113   205.0486   205.6352   206.7496   
      6    0      35    5.74e-02   197.7921   202.9833   203.9080   204.8021   205.8966   
      7    0      40    1.94e-01   197.7913   202.9472   202.9944   204.2138   205.4410   
      8    0      45    4.10e-02   197.7876   201.9526   202.9190   203.2161   204.8943   
      9    0      50    2.84e-02   197.7866   201.6577   202.6337   203.0288   204.6910   
      10   1      55    2.49e-03   197.7863*  201.5927   202.5231   203.0162   204.6309   
      11   1      59    5.43e-03   197.7863*  201.5590   202.4655   203.0116   204.6100   
      12   1      63    3.33e-04   197.7863*  201.5448   202.4363   203.0095   204.6024   
      13   1      67    1.52e-04   197.7863*  201.5442   202.4334   203.0093   204.6010   
      14   2      71    1.92e-05   197.7863*  201.5437   202.4323   203.0092*  204.6007   
      15   2      74    1.39e-05   197.7863*  201.5435   202.4318   203.0092*  204.6001   
      16   5      77    2.76e-06   197.7863*  201.5436*  202.4320*  203.0092*  204.5999*  

     Davidson procedure converged

 EOMEE transition 1/A1
 Total energy = -683.09277831 a.u.  Excitation energy = 197.7863 eV.
 R0^2 = 0.0000  R1^2 = 0.8616  R2_CCVV^2 = 0.0045  R2_COVV^2 = 0.0670  Res^2 = 2.02e-07
 Conv-d = yes

 Amplitude    Transitions between orbitals
 -0.9005       1 (B2) B                  ->    4 (B2) B                   
 -0.1246       1 (B2) B                  ->    6 (B2) B                   
  0.0928       1 (B2) B                  ->    7 (B2) B                   
  0.0737       1 (B2) B                  ->    16 (B2) B                  

              Summary of significant orbitals:

               Number  Type             Irrep      Energy
               11      Occ  Beta        1 (B2)     -8.2430
               29      Vir  Beta        4 (B2)     -0.2574
               35      Vir  Beta        6 (B2)     -0.0539
               40      Vir  Beta        7 (B2)     -0.0367
               85      Vir  Beta       16 (B2)      0.1848


 EOMEE transition 2/A1
 Total energy = -682.95470076 a.u.  Excitation energy = 201.5436 eV.
 R0^2 = 0.0000  R1^2 = 0.8925  R2_CCVV^2 = 0.0045  R2_COVV^2 = 0.0515  Res^2 = 2.03e-06
 Conv-d = yes

 Amplitude    Transitions between orbitals
  0.2837       7 (A1) A                  ->    25 (A1) A                  
  0.2805       7 (A1) A                  ->    27 (A1) A                  
 -0.2572       7 (A1) A                  ->    23 (A1) A                  
  0.2511       7 (A1) A                  ->    20 (A1) A                  
 -0.2248       7 (A1) B                  ->    25 (A1) B                  
  0.2207       7 (A1) A                  ->    28 (A1) A                  
 -0.2179       7 (A1) B                  ->    27 (A1) B                  
 -0.1840       7 (A1) A                  ->    18 (A1) A                  
 -0.1779       7 (A1) B                  ->    23 (A1) B                  
  0.1771       7 (A1) B                  ->    28 (A1) B                  
 -0.1612       7 (A1) A                  ->    29 (A1) A                  
  0.1606       7 (A1) A                  ->    36 (A1) A                  
  0.1597       7 (A1) B                  ->    29 (A1) B                  
  0.1509       7 (A1) B                  ->    20 (A1) B                  
  0.1310       7 (A1) A                  ->    32 (A1) A                  
 -0.1285       7 (A1) A                  ->    19 (A1) A                  
 -0.1225       7 (A1) A                  ->    21 (A1) A                  
 -0.1164       7 (A1) B                  ->    36 (A1) B                  
  0.1124       7 (A1) B                  ->    18 (A1) B                  
 -0.1122       7 (A1) A                  ->    24 (A1) A                  
  0.1082       7 (A1) A                  ->    46 (A1) A                  
  0.1044       7 (A1) B                  ->    32 (A1) B                  
  0.1025       7 (A1) A                  ->    38 (A1) A                  

              Summary of significant orbitals:

               Number  Type             Irrep      Energy
               10      Occ  Alpha       7 (A1)     -8.2494
               9       Occ  Beta        7 (A1)     -8.2496
               36      Vir  Alpha      18 (A1)     -0.0534
               37      Vir  Alpha      19 (A1)     -0.0506
               41      Vir  Alpha      20 (A1)     -0.0335
               42      Vir  Alpha      21 (A1)     -0.0268
               48      Vir  Alpha      23 (A1)     -0.0201
               51      Vir  Alpha      24 (A1)     -0.0082
               52      Vir  Alpha      25 (A1)     -0.0075
               57      Vir  Alpha      27 (A1)      0.0132
               60      Vir  Alpha      28 (A1)      0.0288
               61      Vir  Alpha      29 (A1)      0.0379
               69      Vir  Alpha      32 (A1)      0.0899
               80      Vir  Alpha      36 (A1)      0.1465
               84      Vir  Alpha      38 (A1)      0.1631
               101     Vir  Alpha      46 (A1)      0.4792
               36      Vir  Beta       18 (A1)     -0.0528
               41      Vir  Beta       20 (A1)     -0.0325
               48      Vir  Beta       23 (A1)     -0.0189
               52      Vir  Beta       25 (A1)     -0.0058
               58      Vir  Beta       27 (A1)      0.0155
               60      Vir  Beta       28 (A1)      0.0312
               61      Vir  Beta       29 (A1)      0.0399
               69      Vir  Beta       32 (A1)      0.0902
               80      Vir  Beta       36 (A1)      0.1499


 EOMEE transition 3/A1
 Total energy = -682.92205264 a.u.  Excitation energy = 202.4320 eV.
 R0^2 = 0.0000  R1^2 = 0.8797  R2_CCVV^2 = 0.0047  R2_COVV^2 = 0.0578  Res^2 = 6.35e-06
 Conv-d = yes

 Amplitude    Transitions between orbitals
 -0.3053       7 (A1) B                  ->    25 (A1) B                  
 -0.2909       7 (A1) B                  ->    27 (A1) B                  
  0.2423       7 (A1) B                  ->    28 (A1) B                  
 -0.2407       7 (A1) B                  ->    23 (A1) B                  
 -0.2093       7 (A1) A                  ->    25 (A1) A                  
  0.2092       7 (A1) B                  ->    20 (A1) B                  
 -0.2027       7 (A1) A                  ->    27 (A1) A                  
  0.1994       7 (A1) B                  ->    29 (A1) B                  
 -0.1890       7 (A1) A                  ->    20 (A1) A                  
  0.1883       7 (A1) A                  ->    23 (A1) A                  
  0.1801       1 (B2) A                  ->    5 (B2) A                   
 -0.1638       7 (A1) A                  ->    28 (A1) A                  
  0.1551       7 (A1) B                  ->    18 (A1) B                  
  0.1387       7 (A1) A                  ->    18 (A1) A                  
 -0.1361       7 (A1) B                  ->    36 (A1) B                  
  0.1329       7 (A1) B                  ->    19 (A1) B                  
  0.1201       7 (A1) B                  ->    32 (A1) B                  
 -0.1135       7 (A1) B                  ->    38 (A1) B                  
  0.1065       7 (A1) A                  ->    19 (A1) A                  
  0.1063       7 (A1) A                  ->    29 (A1) A                  
  0.1048       7 (A1) B                  ->    35 (A1) B                  
 -0.1012       7 (A1) A                  ->    36 (A1) A                  

              Summary of significant orbitals:

               Number  Type             Irrep      Energy
               10      Occ  Alpha       7 (A1)     -8.2494
               9       Occ  Alpha       1 (B2)     -8.2508
               9       Occ  Beta        7 (A1)     -8.2496
               36      Vir  Alpha      18 (A1)     -0.0534
               37      Vir  Alpha      19 (A1)     -0.0506
               41      Vir  Alpha      20 (A1)     -0.0335
               48      Vir  Alpha      23 (A1)     -0.0201
               52      Vir  Alpha      25 (A1)     -0.0075
               57      Vir  Alpha      27 (A1)      0.0132
               60      Vir  Alpha      28 (A1)      0.0288
               61      Vir  Alpha      29 (A1)      0.0379
               80      Vir  Alpha      36 (A1)      0.1465
               30      Vir  Alpha       5 (B2)     -0.1259
               36      Vir  Beta       18 (A1)     -0.0528
               37      Vir  Beta       19 (A1)     -0.0501
               41      Vir  Beta       20 (A1)     -0.0325
               48      Vir  Beta       23 (A1)     -0.0189
               52      Vir  Beta       25 (A1)     -0.0058
               58      Vir  Beta       27 (A1)      0.0155
               60      Vir  Beta       28 (A1)      0.0312
               61      Vir  Beta       29 (A1)      0.0399
               69      Vir  Beta       32 (A1)      0.0902
               78      Vir  Beta       35 (A1)      0.1288
               80      Vir  Beta       36 (A1)      0.1499
               83      Vir  Beta       38 (A1)      0.1651


 EOMEE transition 4/A1
 Total energy = -682.90084069 a.u.  Excitation energy = 203.0092 eV.
 R0^2 = 0.0000  R1^2 = 0.8417  R2_CCVV^2 = 0.0045  R2_COVV^2 = 0.0769  Res^2 = 6.84e-07
 Conv-d = yes

 Amplitude    Transitions between orbitals
  0.8820       1 (B2) A                  ->    5 (B2) A                   
  0.0971       1 (B2) A                  ->    13 (B2) A                  
  0.0861       1 (B2) A                  ->    6 (B2) A                   
 -0.0703       1 (B2) A                  ->    16 (B2) A                  

              Summary of significant orbitals:

               Number  Type             Irrep      Energy
               9       Occ  Alpha       1 (B2)     -8.2508
               30      Vir  Alpha       5 (B2)     -0.1259
               35      Vir  Alpha       6 (B2)     -0.0656
               67      Vir  Alpha      13 (B2)      0.0725
               83      Vir  Alpha      16 (B2)      0.1629


 EOMEE transition 5/A1
 Total energy = -682.84238492 a.u.  Excitation energy = 204.5999 eV.
 R0^2 = 0.0000  R1^2 = 0.8326  R2_CCVV^2 = 0.0044  R2_COVV^2 = 0.0815  Res^2 = 4.51e-06
 Conv-d = yes

 Amplitude    Transitions between orbitals
  0.6442       1 (B2) B                  ->    6 (B2) B                   
 -0.4700       1 (B2) B                  ->    7 (B2) B                   
 -0.1847       1 (B2) B                  ->    4 (B2) B                   
  0.1727       1 (B2) B                  ->    8 (B2) B                   
 -0.1688       1 (B2) B                  ->    15 (B2) B                  
  0.1682       1 (B2) B                  ->    9 (B2) B                   
 -0.1587       1 (B2) B                  ->    13 (B2) B                  
 -0.1353       1 (B2) B                  ->    16 (B2) B                  
 -0.1242       1 (B2) B                  ->    5 (B2) B                   

              Summary of significant orbitals:

               Number  Type             Irrep      Energy
               11      Occ  Beta        1 (B2)     -8.2430
               29      Vir  Beta        4 (B2)     -0.2574
               34      Vir  Beta        5 (B2)     -0.0666
               35      Vir  Beta        6 (B2)     -0.0539
               40      Vir  Beta        7 (B2)     -0.0367
               46      Vir  Beta        8 (B2)     -0.0217
               49      Vir  Beta        9 (B2)     -0.0185
               67      Vir  Beta       13 (B2)      0.0826
               74      Vir  Beta       15 (B2)      0.1086
               85      Vir  Beta       16 (B2)      0.1848


      CVS-EOM-CCSD/MP2 left amplitudes will be solved using Davidson.
        Amplitudes will be solved using MOM  algorithm.
     Hard-coded thresholds: 
     LinDepThresh=1.00e-15  NormThresh=1.00e-06  ReorthogonThresh=1.00e-02

      Roots     MaxVec    MaxIter   Precond   Conv      Shift    
      5         120       60        1         1.00e-05  7.28e+00  
 ------------------------------------------------------------------------------
      Iter ConvRoots NVecs ResNorm Current eigenvalues (eV)
 ------------------------------------------------------------------------------
      0    0      5     2.35e-02   197.7863   201.5436   202.4320   203.0092   204.5999   
      1    0      10    1.63e+02   197.7863   201.5436   202.4320   203.0092   204.5999   
      2    0      15    3.25e-01   197.7863   201.5435   202.4319   203.0092   204.5999   
      3    0      20    2.12e-02   197.7863   201.5435   202.4319   203.0092   204.6000   
      4    0      25    2.35e-03   197.7863   201.5435   202.4319   203.0092   204.6000   
      5    0      30    1.70e-04   197.7863   201.5435   202.4319   203.0092   204.6000   
      6    0      35    5.29e-05   197.7863   201.5435   202.4319   203.0092   204.5999   
      7    4      40    1.90e-05   197.7863*  201.5435*  202.4319*  203.0092*  204.5999   
      8    3      41    1.76e-05   197.7863   201.5435*  202.4319*  203.0092*  204.5999   
      9    5      43    2.06e-06   197.7863*  201.5435*  202.4319*  203.0092*  204.5999*  

     Davidson procedure converged

        Solving for CVS-EOMEE-CCSD B1 transitions.

        CVS-EOMEE-CCSD/MP2 right amplitudes will be solved using Davidson.
        Amplitudes will be solved using shifted  algorithm.
     Hard-coded thresholds: 
     LinDepThresh=1.00e-15  NormThresh=1.00e-06  ReorthogonThresh=1.00e-02

      Roots     MaxVec    MaxIter   Precond   Conv      Shift    
      5         120       60        1         1.00e-05  7.28e+00  
 ------------------------------------------------------------------------------
      Iter ConvRoots NVecs ResNorm Current eigenvalues (eV)
 ------------------------------------------------------------------------------
      0    0      5     2.99e+00   218.7156   219.0618   219.3105   219.3163   220.2604   
      1    0      10    6.96e+01   217.2197   217.3752   217.5875   217.7860   218.7355   
      2    0      15    1.09e+00   205.8598   205.9974   207.0801   207.5097   208.4183   
      3    0      20    5.84e-02   205.1234   205.1776   206.2910   206.5683   207.3939   
      4    0      25    1.52e-01   205.0643   205.0907   206.0983   206.3034   206.7867   
      5    0      30    2.24e-01   203.3352   205.0236   205.0272   205.0659   205.7012   
      6    0      35    3.97e-02   202.4094   204.0560   204.9820   205.0055   205.5400   
      7    0      40    1.31e-01   202.0955   203.1844   204.9809   205.0084   205.5280   
      8    0      45    2.13e-02   201.8587   202.1160   204.9778   205.0061   205.5180   
      9    0      50    8.45e-03   201.7007   201.9552   204.9751   205.0049   205.5075   
      10   1      55    1.27e-03   201.6377   201.9361   204.9741   205.0047*  205.5025   
      11   1      59    1.95e-03   201.6021   201.9279   204.9744   205.0047*  205.5002   
      12   2      63    2.81e-04   201.5896   201.9252   204.9743*  205.0047*  205.4946   
      13   2      66    2.55e-04   201.5880   201.9249   204.9743*  205.0047*  205.4889   
      14   3      69    8.53e-05   201.5873   201.9247*  204.9743*  205.0047*  205.4845   
      15   3      71    1.30e-04   201.5872   201.9247*  204.9743*  205.0047*  205.4810   
      16   4      73    3.65e-05   201.5871*  201.9247*  204.9743*  205.0047*  205.4787   
      17   4      74    3.63e-05   201.5871*  201.9247*  204.9743*  205.0047*  205.4775   
      18   4      75    1.24e-05   201.5872*  201.9247*  204.9743*  205.0047*  205.4772   
      19   4      76    7.99e-06   201.5872*  201.9247*  204.9743*  205.0047*  205.4770   
      20   4      77    5.42e-06   201.5872*  201.9247*  204.9743*  205.0047*  205.4768   
      21   5      78    3.30e-06   201.5871*  201.9247*  204.9743*  205.0047*  205.4767*  

     Davidson procedure converged

 EOMEE transition 1/B1
 Total energy = -682.95310020 a.u.  Excitation energy = 201.5871 eV.
 R0^2 = 0.0000  R1^2 = 0.8896  R2_CCVV^2 = 0.0046  R2_COVV^2 = 0.0529  Res^2 = 5.00e-07
 Conv-d = yes

 Amplitude    Transitions between orbitals
 -0.3380       3 (B1) A                  ->    25 (A1) A                  
 -0.3323       3 (B1) A                  ->    27 (A1) A                  
  0.3054       3 (B1) A                  ->    23 (A1) A                  
 -0.2995       3 (B1) A                  ->    20 (A1) A                  
 -0.2624       3 (B1) A                  ->    28 (A1) A                  
  0.2209       3 (B1) A                  ->    18 (A1) A                  
  0.1882       3 (B1) A                  ->    29 (A1) A                  
 -0.1862       3 (B1) A                  ->    36 (A1) A                  
  0.1573       3 (B1) A                  ->    19 (A1) A                  
 -0.1494       3 (B1) A                  ->    32 (A1) A                  
  0.1485       3 (B1) A                  ->    21 (A1) A                  
  0.1338       3 (B1) A                  ->    24 (A1) A                  
 -0.1200       3 (B1) B                  ->    25 (A1) B                  
 -0.1183       3 (B1) A                  ->    38 (A1) A                  
 -0.1181       3 (B1) A                  ->    46 (A1) A                  
 -0.1144       3 (B1) B                  ->    27 (A1) B                  
  0.1105       3 (B1) A                  ->    17 (A1) A                  
  0.1090       3 (B1) A                  ->    35 (A1) A                  
  0.1054       3 (B1) A                  ->    30 (A1) A                  
  0.1004       3 (B1) A                  ->    22 (A1) A                  

              Summary of significant orbitals:

               Number  Type             Irrep      Energy
               11      Occ  Alpha       3 (B1)     -8.2470
               10      Occ  Beta        3 (B1)     -8.2461
               34      Vir  Alpha      17 (A1)     -0.0687
               36      Vir  Alpha      18 (A1)     -0.0534
               37      Vir  Alpha      19 (A1)     -0.0506
               41      Vir  Alpha      20 (A1)     -0.0335
               42      Vir  Alpha      21 (A1)     -0.0268
               44      Vir  Alpha      22 (A1)     -0.0241
               48      Vir  Alpha      23 (A1)     -0.0201
               51      Vir  Alpha      24 (A1)     -0.0082
               52      Vir  Alpha      25 (A1)     -0.0075
               57      Vir  Alpha      27 (A1)      0.0132
               60      Vir  Alpha      28 (A1)      0.0288
               61      Vir  Alpha      29 (A1)      0.0379
               65      Vir  Alpha      30 (A1)      0.0646
               69      Vir  Alpha      32 (A1)      0.0899
               78      Vir  Alpha      35 (A1)      0.1263
               80      Vir  Alpha      36 (A1)      0.1465
               84      Vir  Alpha      38 (A1)      0.1631
               101     Vir  Alpha      46 (A1)      0.4792
               52      Vir  Beta       25 (A1)     -0.0058
               58      Vir  Beta       27 (A1)      0.0155


 EOMEE transition 2/B1
 Total energy = -682.94069638 a.u.  Excitation energy = 201.9247 eV.
 R0^2 = 0.0000  R1^2 = 0.8878  R2_CCVV^2 = 0.0047  R2_COVV^2 = 0.0538  Res^2 = 1.38e-06
 Conv-d = yes

 Amplitude    Transitions between orbitals
 -0.3659       3 (B1) B                  ->    25 (A1) B                  
 -0.3513       3 (B1) B                  ->    27 (A1) B                  
  0.2888       3 (B1) B                  ->    28 (A1) B                  
 -0.2882       3 (B1) B                  ->    23 (A1) B                  
  0.2483       3 (B1) B                  ->    20 (A1) B                  
  0.2479       3 (B1) B                  ->    29 (A1) B                  
  0.1846       3 (B1) B                  ->    18 (A1) B                  
 -0.1739       3 (B1) B                  ->    36 (A1) B                  
  0.1550       3 (B1) B                  ->    32 (A1) B                  
  0.1515       3 (B1) B                  ->    19 (A1) B                  
 -0.1456       3 (B1) B                  ->    38 (A1) B                  
  0.1333       3 (B1) B                  ->    35 (A1) B                  
 -0.1246       3 (B1) B                  ->    46 (A1) B                  
  0.1128       3 (B1) A                  ->    25 (A1) A                  
  0.1112       3 (B1) A                  ->    27 (A1) A                  
  0.1099       3 (B1) B                  ->    21 (A1) B                  
  0.1085       3 (B1) B                  ->    30 (A1) B                  
  0.1025       3 (B1) A                  ->    20 (A1) A                  
 -0.1017       3 (B1) A                  ->    23 (A1) A                  

              Summary of significant orbitals:

               Number  Type             Irrep      Energy
               11      Occ  Alpha       3 (B1)     -8.2470
               10      Occ  Beta        3 (B1)     -8.2461
               41      Vir  Alpha      20 (A1)     -0.0335
               48      Vir  Alpha      23 (A1)     -0.0201
               52      Vir  Alpha      25 (A1)     -0.0075
               57      Vir  Alpha      27 (A1)      0.0132
               36      Vir  Beta       18 (A1)     -0.0528
               37      Vir  Beta       19 (A1)     -0.0501
               41      Vir  Beta       20 (A1)     -0.0325
               43      Vir  Beta       21 (A1)     -0.0264
               48      Vir  Beta       23 (A1)     -0.0189
               52      Vir  Beta       25 (A1)     -0.0058
               58      Vir  Beta       27 (A1)      0.0155
               60      Vir  Beta       28 (A1)      0.0312
               61      Vir  Beta       29 (A1)      0.0399
               65      Vir  Beta       30 (A1)      0.0661
               69      Vir  Beta       32 (A1)      0.0902
               78      Vir  Beta       35 (A1)      0.1288
               80      Vir  Beta       36 (A1)      0.1499
               83      Vir  Beta       38 (A1)      0.1651
               101     Vir  Beta       46 (A1)      0.4887


 EOMEE transition 3/B1
 Total energy = -682.82862572 a.u.  Excitation energy = 204.9743 eV.
 R0^2 = 0.0000  R1^2 = 0.8333  R2_CCVV^2 = 0.0044  R2_COVV^2 = 0.0812  Res^2 = 1.59e-06
 Conv-d = yes

 Amplitude    Transitions between orbitals
 -0.8844       1 (B2) B                  ->    2 (A2) B                   
  0.1538       1 (B2) B                  ->    4 (A2) B                   
 -0.1278       1 (B2) B                  ->    6 (A2) B                   
 -0.0902       1 (B2) B                  ->    3 (A2) B                   

              Summary of significant orbitals:

               Number  Type             Irrep      Energy
               11      Occ  Beta        1 (B2)     -8.2430
               33      Vir  Beta        2 (A2)     -0.0677
               39      Vir  Beta        3 (A2)     -0.0451
               47      Vir  Beta        4 (A2)     -0.0208
               71      Vir  Beta        6 (A2)      0.0953


 EOMEE transition 4/B1
 Total energy = -682.82750912 a.u.  Excitation energy = 205.0047 eV.
 R0^2 = 0.0000  R1^2 = 0.8296  R2_CCVV^2 = 0.0045  R2_COVV^2 = 0.0830  Res^2 = 6.74e-06
 Conv-d = yes

 Amplitude    Transitions between orbitals
  0.8963       1 (B2) A                  ->    2 (A2) A                   
  0.0987       1 (B2) A                  ->    6 (A2) A                   
  0.0843       1 (B2) A                  ->    4 (A2) A                   
 -0.0617       1 (B2) A                  ->    3 (A2) A                   

              Summary of significant orbitals:

               Number  Type             Irrep      Energy
               9       Occ  Alpha       1 (B2)     -8.2508
               31      Vir  Alpha       2 (A2)     -0.0887
               39      Vir  Alpha       3 (A2)     -0.0454
               47      Vir  Alpha       4 (A2)     -0.0218
               70      Vir  Alpha       6 (A2)      0.0920


 EOMEE transition 5/B1
 Total energy = -682.81016144 a.u.  Excitation energy = 205.4767 eV.
 R0^2 = 0.0000  R1^2 = 0.8695  R2_CCVV^2 = 0.0046  R2_COVV^2 = 0.0629  Res^2 = 6.29e-06
 Conv-d = yes

 Amplitude    Transitions between orbitals
  0.4245       3 (B1) A                  ->    16 (A1) A                  
 -0.3859       3 (B1) A                  ->    17 (A1) A                  
  0.3095       3 (B1) B                  ->    16 (A1) B                  
  0.2835       3 (B1) B                  ->    17 (A1) B                  
 -0.2552       3 (B1) A                  ->    22 (A1) A                  
 -0.2083       3 (B1) A                  ->    30 (A1) A                  
 -0.1916       3 (B1) B                  ->    22 (A1) B                  
 -0.1813       3 (B1) A                  ->    20 (A1) A                  
 -0.1594       3 (B1) B                  ->    30 (A1) B                  
  0.1389       3 (B1) B                  ->    20 (A1) B                  
 -0.1259       3 (B1) A                  ->    32 (A1) A                  
 -0.1181       3 (B1) A                  ->    21 (A1) A                  
 -0.1137       3 (B1) A                  ->    18 (A1) A                  
 -0.1115       3 (B1) A                  ->    40 (A1) A                  

              Summary of significant orbitals:

               Number  Type             Irrep      Energy
               11      Occ  Alpha       3 (B1)     -8.2470
               10      Occ  Beta        3 (B1)     -8.2461
               32      Vir  Alpha      16 (A1)     -0.0867
               34      Vir  Alpha      17 (A1)     -0.0687
               36      Vir  Alpha      18 (A1)     -0.0534
               41      Vir  Alpha      20 (A1)     -0.0335
               42      Vir  Alpha      21 (A1)     -0.0268
               44      Vir  Alpha      22 (A1)     -0.0241
               65      Vir  Alpha      30 (A1)      0.0646
               69      Vir  Alpha      32 (A1)      0.0899
               88      Vir  Alpha      40 (A1)      0.2305
               30      Vir  Beta       16 (A1)     -0.0865
               32      Vir  Beta       17 (A1)     -0.0681
               41      Vir  Beta       20 (A1)     -0.0325
               44      Vir  Beta       22 (A1)     -0.0236
               65      Vir  Beta       30 (A1)      0.0661


      CVS-EOM-CCSD/MP2 left amplitudes will be solved using Davidson.
        Amplitudes will be solved using MOM  algorithm.
     Hard-coded thresholds: 
     LinDepThresh=1.00e-15  NormThresh=1.00e-06  ReorthogonThresh=1.00e-02

      Roots     MaxVec    MaxIter   Precond   Conv      Shift    
      5         120       60        1         1.00e-05  7.28e+00  
 ------------------------------------------------------------------------------
      Iter ConvRoots NVecs ResNorm Current eigenvalues (eV)
 ------------------------------------------------------------------------------
      0    0      5     2.09e-02   201.5871   201.9247   204.9743   205.0047   205.4767   
      1    0      10    1.64e+02   201.5872   201.9247   204.9742   205.0047   205.4767   
      2    0      15    4.90e-01   201.5872   201.9247   204.9742   205.0047   205.4767   
      3    0      20    1.36e-02   201.5872   201.9247   204.9742   205.0048   205.4767   
      4    0      25    2.93e-03   201.5872   201.9247   204.9742   205.0048   205.4767   
      5    1      30    1.29e-04   201.5872   201.9247   204.9742   205.0047   205.4767*  
      6    0      34    4.13e-05   201.5872   201.9247   204.9742   205.0047   205.4767   
      7    2      39    1.80e-05   201.5872*  201.9247*  204.9742   205.0047   205.4767   
      8    3      42    9.67e-06   201.5872*  201.9247*  204.9742*  205.0047   205.4767   
      9    5      44    2.94e-06   201.5872*  201.9247*  204.9742*  205.0047*  205.4767*  

     Davidson procedure converged

        Solving for CVS-EOMEE-CCSD B2 transitions.

        CVS-EOMEE-CCSD/MP2 right amplitudes will be solved using Davidson.
        Amplitudes will be solved using shifted  algorithm.
     Hard-coded thresholds: 
     LinDepThresh=1.00e-15  NormThresh=1.00e-06  ReorthogonThresh=1.00e-02

      Roots     MaxVec    MaxIter   Precond   Conv      Shift    
      5         120       60        1         1.00e-05  7.28e+00  
 ------------------------------------------------------------------------------
      Iter ConvRoots NVecs ResNorm Current eigenvalues (eV)
 ------------------------------------------------------------------------------
      0    0      5     3.02e+00   211.5935   217.0238   219.1803   219.1970   219.4445   
      1    0      10    6.65e+01   209.9451   215.3368   217.4560   217.6826   217.9158   
      2    0      15    9.36e-01   198.7339   203.9722   205.8633   207.4310   207.6348   
      3    0      20    4.50e-02   198.1269   203.1721   205.0471   206.5274   206.6467   
      4    0      25    6.79e-02   198.0131   203.0888   204.9883   206.2749   206.3793   
      5    0      30    1.81e-01   197.9526   203.0414   204.9531   205.1377   205.1895   
      6    0      35    4.17e-02   197.9385   203.0186   204.1352   204.2514   204.9313   
      7    0      40    2.03e-01   197.9379   203.0122   203.2610   203.5350   204.9337   
      8    0      45    3.98e-02   197.9345   202.1038   202.4011   203.0183   204.9318   
      9    0      50    1.66e-02   197.9337   201.7977   202.0659   203.0157   204.9305   
      10   2      55    2.52e-03   197.9335*  201.7129   201.9730   203.0153   204.9304*  
      11   2      58    3.72e-03   197.9335*  201.6701   201.9218   203.0156   204.9304*  
      12   3      61    2.44e-04   197.9335*  201.6530   201.9004   203.0155*  204.9304*  
      13   3      63    8.55e-05   197.9335*  201.6521   201.8995   203.0155*  204.9304*  
      14   3      65    1.16e-05   197.9335*  201.6514   201.8987   203.0155*  204.9304*  
      15   3      67    9.87e-06   197.9335*  201.6511   201.8983   203.0155*  204.9304*  
      16   5      69    3.15e-06   197.9335*  201.6512*  201.8985*  203.0155*  204.9304*  

     Davidson procedure converged

 EOMEE transition 1/B2
 Total energy = -683.08736764 a.u.  Excitation energy = 197.9335 eV.
 R0^2 = 0.0000  R1^2 = 0.8597  R2_CCVV^2 = 0.0045  R2_COVV^2 = 0.0679  Res^2 = 1.31e-06
 Conv-d = yes

 Amplitude    Transitions between orbitals
  0.9000       7 (A1) B                  ->    4 (B2) B                   
  0.1264       7 (A1) B                  ->    6 (B2) B                   
 -0.0946       7 (A1) B                  ->    7 (B2) B                   
 -0.0749       7 (A1) B                  ->    16 (B2) B                  

              Summary of significant orbitals:

               Number  Type             Irrep      Energy
               9       Occ  Beta        7 (A1)     -8.2496
               29      Vir  Beta        4 (B2)     -0.2574
               35      Vir  Beta        6 (B2)     -0.0539
               40      Vir  Beta        7 (B2)     -0.0367
               85      Vir  Beta       16 (B2)      0.1848


 EOMEE transition 2/B2
 Total energy = -682.95074564 a.u.  Excitation energy = 201.6512 eV.
 R0^2 = 0.0000  R1^2 = 0.8874  R2_CCVV^2 = 0.0046  R2_COVV^2 = 0.0540  Res^2 = 2.52e-06
 Conv-d = yes

 Amplitude    Transitions between orbitals
 -0.3146       1 (B2) A                  ->    25 (A1) A                  
 -0.3094       1 (B2) A                  ->    27 (A1) A                  
  0.2852       1 (B2) A                  ->    23 (A1) A                  
 -0.2784       1 (B2) A                  ->    20 (A1) A                  
 -0.2456       1 (B2) A                  ->    28 (A1) A                  
  0.2056       1 (B2) A                  ->    18 (A1) A                  
  0.1761       1 (B2) B                  ->    25 (A1) B                  
  0.1757       1 (B2) A                  ->    29 (A1) A                  
 -0.1742       1 (B2) A                  ->    36 (A1) A                  
  0.1683       1 (B2) B                  ->    27 (A1) B                  
  0.1466       1 (B2) A                  ->    19 (A1) A                  
 -0.1399       1 (B2) A                  ->    32 (A1) A                  
  0.1395       1 (B2) B                  ->    23 (A1) B                  
 -0.1392       1 (B2) B                  ->    28 (A1) B                  
  0.1384       1 (B2) A                  ->    21 (A1) A                  
  0.1249       1 (B2) A                  ->    24 (A1) A                  
 -0.1214       1 (B2) B                  ->    29 (A1) B                  
 -0.1168       1 (B2) B                  ->    20 (A1) B                  
 -0.1108       1 (B2) A                  ->    38 (A1) A                  
 -0.1104       1 (B2) A                  ->    46 (A1) A                  
  0.1030       1 (B2) A                  ->    17 (A1) A                  
  0.1029       1 (B2) A                  ->    35 (A1) A                  

              Summary of significant orbitals:

               Number  Type             Irrep      Energy
               9       Occ  Alpha       1 (B2)     -8.2508
               11      Occ  Beta        1 (B2)     -8.2430
               34      Vir  Alpha      17 (A1)     -0.0687
               36      Vir  Alpha      18 (A1)     -0.0534
               37      Vir  Alpha      19 (A1)     -0.0506
               41      Vir  Alpha      20 (A1)     -0.0335
               42      Vir  Alpha      21 (A1)     -0.0268
               48      Vir  Alpha      23 (A1)     -0.0201
               51      Vir  Alpha      24 (A1)     -0.0082
               52      Vir  Alpha      25 (A1)     -0.0075
               57      Vir  Alpha      27 (A1)      0.0132
               60      Vir  Alpha      28 (A1)      0.0288
               61      Vir  Alpha      29 (A1)      0.0379
               69      Vir  Alpha      32 (A1)      0.0899
               78      Vir  Alpha      35 (A1)      0.1263
               80      Vir  Alpha      36 (A1)      0.1465
               84      Vir  Alpha      38 (A1)      0.1631
               101     Vir  Alpha      46 (A1)      0.4792
               41      Vir  Beta       20 (A1)     -0.0325
               48      Vir  Beta       23 (A1)     -0.0189
               52      Vir  Beta       25 (A1)     -0.0058
               58      Vir  Beta       27 (A1)      0.0155
               60      Vir  Beta       28 (A1)      0.0312
               61      Vir  Beta       29 (A1)      0.0399


 EOMEE transition 3/B2
 Total energy = -682.94165825 a.u.  Excitation energy = 201.8985 eV.
 R0^2 = 0.0000  R1^2 = 0.8874  R2_CCVV^2 = 0.0047  R2_COVV^2 = 0.0539  Res^2 = 3.50e-06
 Conv-d = yes

 Amplitude    Transitions between orbitals
  0.3428       1 (B2) B                  ->    25 (A1) B                  
  0.3293       1 (B2) B                  ->    27 (A1) B                  
 -0.2715       1 (B2) B                  ->    28 (A1) B                  
  0.2709       1 (B2) B                  ->    23 (A1) B                  
 -0.2335       1 (B2) B                  ->    20 (A1) B                  
 -0.2322       1 (B2) B                  ->    29 (A1) B                  
 -0.1729       1 (B2) B                  ->    18 (A1) B                  
  0.1629       1 (B2) A                  ->    25 (A1) A                  
  0.1624       1 (B2) B                  ->    36 (A1) B                  
  0.1606       1 (B2) A                  ->    27 (A1) A                  
 -0.1474       1 (B2) A                  ->    23 (A1) A                  
  0.1468       1 (B2) A                  ->    20 (A1) A                  
 -0.1458       1 (B2) B                  ->    32 (A1) B                  
 -0.1417       1 (B2) B                  ->    19 (A1) B                  
  0.1365       1 (B2) B                  ->    38 (A1) B                  
  0.1267       1 (B2) A                  ->    28 (A1) A                  
 -0.1258       1 (B2) B                  ->    35 (A1) B                  
  0.1159       1 (B2) B                  ->    46 (A1) B                  
 -0.1056       1 (B2) A                  ->    18 (A1) A                  
 -0.1026       1 (B2) B                  ->    21 (A1) B                  
 -0.1013       1 (B2) B                  ->    30 (A1) B                  

              Summary of significant orbitals:

               Number  Type             Irrep      Energy
               9       Occ  Alpha       1 (B2)     -8.2508
               11      Occ  Beta        1 (B2)     -8.2430
               36      Vir  Alpha      18 (A1)     -0.0534
               41      Vir  Alpha      20 (A1)     -0.0335
               48      Vir  Alpha      23 (A1)     -0.0201
               52      Vir  Alpha      25 (A1)     -0.0075
               57      Vir  Alpha      27 (A1)      0.0132
               60      Vir  Alpha      28 (A1)      0.0288
               36      Vir  Beta       18 (A1)     -0.0528
               37      Vir  Beta       19 (A1)     -0.0501
               41      Vir  Beta       20 (A1)     -0.0325
               43      Vir  Beta       21 (A1)     -0.0264
               48      Vir  Beta       23 (A1)     -0.0189
               52      Vir  Beta       25 (A1)     -0.0058
               58      Vir  Beta       27 (A1)      0.0155
               60      Vir  Beta       28 (A1)      0.0312
               61      Vir  Beta       29 (A1)      0.0399
               65      Vir  Beta       30 (A1)      0.0661
               69      Vir  Beta       32 (A1)      0.0902
               78      Vir  Beta       35 (A1)      0.1288
               80      Vir  Beta       36 (A1)      0.1499
               83      Vir  Beta       38 (A1)      0.1651
               101     Vir  Beta       46 (A1)      0.4887


 EOMEE transition 4/B2
 Total energy = -682.90060991 a.u.  Excitation energy = 203.0155 eV.
 R0^2 = 0.0000  R1^2 = 0.8422  R2_CCVV^2 = 0.0045  R2_COVV^2 = 0.0767  Res^2 = 8.05e-07
 Conv-d = yes

 Amplitude    Transitions between orbitals
  0.8954       7 (A1) A                  ->    5 (B2) A                   
  0.0984       7 (A1) A                  ->    13 (B2) A                  
  0.0902       7 (A1) A                  ->    6 (B2) A                   
 -0.0732       7 (A1) A                  ->    16 (B2) A                  

              Summary of significant orbitals:

               Number  Type             Irrep      Energy
               10      Occ  Alpha       7 (A1)     -8.2494
               30      Vir  Alpha       5 (B2)     -0.1259
               35      Vir  Alpha       6 (B2)     -0.0656
               67      Vir  Alpha      13 (B2)      0.0725
               83      Vir  Alpha      16 (B2)      0.1629


 EOMEE transition 5/B2
 Total energy = -682.83023943 a.u.  Excitation energy = 204.9304 eV.
 R0^2 = 0.0000  R1^2 = 0.8324  R2_CCVV^2 = 0.0045  R2_COVV^2 = 0.0816  Res^2 = 7.61e-06
 Conv-d = yes

 Amplitude    Transitions between orbitals
 -0.8988       3 (B1) A                  ->    2 (A2) A                   
 -0.0989       3 (B1) A                  ->    6 (A2) A                   
 -0.0846       3 (B1) A                  ->    4 (A2) A                   
  0.0619       3 (B1) A                  ->    3 (A2) A                   

              Summary of significant orbitals:

               Number  Type             Irrep      Energy
               11      Occ  Alpha       3 (B1)     -8.2470
               31      Vir  Alpha       2 (A2)     -0.0887
               39      Vir  Alpha       3 (A2)     -0.0454
               47      Vir  Alpha       4 (A2)     -0.0218
               70      Vir  Alpha       6 (A2)      0.0920


      CVS-EOM-CCSD/MP2 left amplitudes will be solved using Davidson.
        Amplitudes will be solved using MOM  algorithm.
     Hard-coded thresholds: 
     LinDepThresh=1.00e-15  NormThresh=1.00e-06  ReorthogonThresh=1.00e-02

      Roots     MaxVec    MaxIter   Precond   Conv      Shift    
      5         120       60        1         1.00e-05  7.28e+00  
 ------------------------------------------------------------------------------
      Iter ConvRoots NVecs ResNorm Current eigenvalues (eV)
 ------------------------------------------------------------------------------
      0    0      5     2.33e-02   197.9335   201.6512   201.8985   203.0155   204.9304   
      1    0      10    1.40e+02   197.9336   201.6512   201.8985   203.0155   204.9304   
      2    0      15    2.84e-01   197.9337   201.6511   201.8984   203.0155   204.9304   
      3    0      20    2.45e-02   197.9337   201.6512   201.8984   203.0155   204.9305   
      4    0      25    3.19e-03   197.9337   201.6512   201.8984   203.0155   204.9304   
      5    0      30    1.57e-04   197.9337   201.6512   201.8984   203.0155   204.9304   
      6    0      35    6.57e-05   197.9337   201.6512   201.8984   203.0155   204.9304   
      7    4      40    8.89e-06   197.9337*  201.6512*  201.8984*  203.0155*  204.9304   
      8    4      41    7.06e-06   197.9337*  201.6512*  201.8984*  203.0155*  204.9304   
      9    5      42    5.14e-06   197.9337*  201.6512*  201.8984*  203.0155*  204.9304*  

     Davidson procedure converged

 CVS-EOMEE-CCSD calculation:   CPU 75314.17 s  wall 10942.53 s


 Start computing the transition properties

 ------------------------------------------------------------------------------
 State A: ccsd: 0/A1
 State B: cvs_eomee_ccsd/uhfref: 1/A1
 Transition dipole moment (a.u.):
   A->B: 0.005224 (X 0.000000, Y 0.000000, Z 0.005224)
   B->A: 0.004923 (X 0.000000, Y 0.000000, Z 0.004923)
 Oscillator strength (a.u.): 0.000125
 Norm of one-particle transition density matrix:
   A->B: 0.899866;   B->A: 0.924107
   ||gamma^AB||*||gamma^BA||: 0.831573

 ------------------------------------------------------------------------------
 State A: ccsd: 0/A1
 State B: cvs_eomee_ccsd/uhfref: 2/A1
 Transition dipole moment (a.u.):
   A->B: 0.001499 (X 0.000000, Y 0.000000, Z -0.001499)
   B->A: 0.001236 (X 0.000000, Y 0.000000, Z -0.001236)
 Oscillator strength (a.u.): 0.000009
 Norm of one-particle transition density matrix:
   A->B: 0.916751;   B->A: 0.931887
   ||gamma^AB||*||gamma^BA||: 0.854308

 ------------------------------------------------------------------------------
 State A: ccsd: 0/A1
 State B: cvs_eomee_ccsd/uhfref: 3/A1
 Transition dipole moment (a.u.):
   A->B: 0.006202 (X 0.000000, Y 0.000000, Z 0.006202)
   B->A: 0.005931 (X 0.000000, Y 0.000000, Z 0.005931)
 Oscillator strength (a.u.): 0.000182
 Norm of one-particle transition density matrix:
   A->B: 0.913173;   B->A: 0.923901
   ||gamma^AB||*||gamma^BA||: 0.843681

 ------------------------------------------------------------------------------
 State A: ccsd: 0/A1
 State B: cvs_eomee_ccsd/uhfref: 4/A1
 Transition dipole moment (a.u.):
   A->B: 0.010162 (X 0.000000, Y 0.000000, Z -0.010162)
   B->A: 0.010219 (X 0.000000, Y 0.000000, Z -0.010219)
 Oscillator strength (a.u.): 0.000516
 Norm of one-particle transition density matrix:
   A->B: 0.881941;   B->A: 0.899327
   ||gamma^AB||*||gamma^BA||: 0.793153

 ------------------------------------------------------------------------------
 State A: ccsd: 0/A1
 State B: cvs_eomee_ccsd/uhfref: 5/A1
 Transition dipole moment (a.u.):
   A->B: 0.008909 (X 0.000000, Y 0.000000, Z -0.008909)
   B->A: 0.008926 (X 0.000000, Y 0.000000, Z -0.008926)
 Oscillator strength (a.u.): 0.000399
 Norm of one-particle transition density matrix:
   A->B: 0.899375;   B->A: 0.887149
   ||gamma^AB||*||gamma^BA||: 0.797880

 ------------------------------------------------------------------------------
 State A: ccsd: 0/A1
 State B: cvs_eomee_ccsd/uhfref: 1/B1
 Transition dipole moment (a.u.):
   A->B: 0.016974 (X 0.016974, Y 0.000000, Z 0.000000)
   B->A: 0.017275 (X 0.017275, Y 0.000000, Z 0.000000)
 Oscillator strength (a.u.): 0.001448
 Norm of one-particle transition density matrix:
   A->B: 0.915120;   B->A: 0.930029
   ||gamma^AB||*||gamma^BA||: 0.851088

 ------------------------------------------------------------------------------
 State A: ccsd: 0/A1
 State B: cvs_eomee_ccsd/uhfref: 2/B1
 Transition dipole moment (a.u.):
   A->B: 0.034984 (X -0.034984, Y 0.000000, Z 0.000000)
   B->A: 0.035257 (X -0.035257, Y 0.000000, Z 0.000000)
 Oscillator strength (a.u.): 0.006102
 Norm of one-particle transition density matrix:
   A->B: 0.916836;   B->A: 0.928320
   ||gamma^AB||*||gamma^BA||: 0.851118

 ------------------------------------------------------------------------------
 State A: ccsd: 0/A1
 State B: cvs_eomee_ccsd/uhfref: 3/B1
 Transition dipole moment (a.u.):
   A->B: 0.002391 (X 0.002391, Y 0.000000, Z 0.000000)
   B->A: 0.002301 (X 0.002301, Y 0.000000, Z 0.000000)
 Oscillator strength (a.u.): 0.000028
 Norm of one-particle transition density matrix:
   A->B: 0.884027;   B->A: 0.892192
   ||gamma^AB||*||gamma^BA||: 0.788722

 ------------------------------------------------------------------------------
 State A: ccsd: 0/A1
 State B: cvs_eomee_ccsd/uhfref: 4/B1
 Transition dipole moment (a.u.):
   A->B: 0.002205 (X -0.002205, Y 0.000000, Z 0.000000)
   B->A: 0.002137 (X -0.002137, Y 0.000000, Z 0.000000)
 Oscillator strength (a.u.): 0.000024
 Norm of one-particle transition density matrix:
   A->B: 0.879417;   B->A: 0.895235
   ||gamma^AB||*||gamma^BA||: 0.787285

 ------------------------------------------------------------------------------
 State A: ccsd: 0/A1
 State B: cvs_eomee_ccsd/uhfref: 5/B1
 Transition dipole moment (a.u.):
   A->B: 0.002546 (X -0.002546, Y 0.000000, Z 0.000000)
   B->A: 0.002536 (X -0.002536, Y 0.000000, Z 0.000000)
 Oscillator strength (a.u.): 0.000032
 Norm of one-particle transition density matrix:
   A->B: 0.928606;   B->A: 0.912159
   ||gamma^AB||*||gamma^BA||: 0.847036

 ------------------------------------------------------------------------------
 State A: ccsd: 0/A1
 State B: cvs_eomee_ccsd/uhfref: 1/B2
 Transition dipole moment (a.u.):
   A->B: 0.005287 (X 0.000000, Y 0.005287, Z 0.000000)
   B->A: 0.005469 (X 0.000000, Y 0.005469, Z 0.000000)
 Oscillator strength (a.u.): 0.000140
 Norm of one-particle transition density matrix:
   A->B: 0.898919;   B->A: 0.922854
   ||gamma^AB||*||gamma^BA||: 0.829572

 ------------------------------------------------------------------------------
 State A: ccsd: 0/A1
 State B: cvs_eomee_ccsd/uhfref: 2/B2
 Transition dipole moment (a.u.):
   A->B: 0.010610 (X 0.000000, Y 0.010610, Z 0.000000)
   B->A: 0.011164 (X 0.000000, Y 0.011164, Z 0.000000)
 Oscillator strength (a.u.): 0.000585
 Norm of one-particle transition density matrix:
   A->B: 0.913189;   B->A: 0.929154
   ||gamma^AB||*||gamma^BA||: 0.848493

 ------------------------------------------------------------------------------
 State A: ccsd: 0/A1
 State B: cvs_eomee_ccsd/uhfref: 3/B2
 Transition dipole moment (a.u.):
   A->B: 0.035927 (X 0.000000, Y -0.035927, Z 0.000000)
   B->A: 0.036092 (X 0.000000, Y -0.036092, Z 0.000000)
 Oscillator strength (a.u.): 0.006414
 Norm of one-particle transition density matrix:
   A->B: 0.916473;   B->A: 0.928050
   ||gamma^AB||*||gamma^BA||: 0.850533

 ------------------------------------------------------------------------------
 State A: ccsd: 0/A1
 State B: cvs_eomee_ccsd/uhfref: 4/B2
 Transition dipole moment (a.u.):
   A->B: 0.009772 (X 0.000000, Y 0.009772, Z 0.000000)
   B->A: 0.009865 (X 0.000000, Y 0.009865, Z 0.000000)
 Oscillator strength (a.u.): 0.000479
 Norm of one-particle transition density matrix:
   A->B: 0.882948;   B->A: 0.898434
   ||gamma^AB||*||gamma^BA||: 0.793270

 ------------------------------------------------------------------------------
 State A: ccsd: 0/A1
 State B: cvs_eomee_ccsd/uhfref: 5/B2
 Transition dipole moment (a.u.):
   A->B: 0.002015 (X 0.000000, Y 0.002015, Z 0.000000)
   B->A: 0.002093 (X 0.000000, Y 0.002093, Z 0.000000)
 Oscillator strength (a.u.): 0.000021
 Norm of one-particle transition density matrix:
   A->B: 0.882017;   B->A: 0.894289
   ||gamma^AB||*||gamma^BA||: 0.788778


 All requested transition properties have been computed

 Transition Properties:   CPU 160.14 s  wall 32.33 s

 Total ccman2 time:   CPU 81417.86 s  wall 11804.53 s


 --------------------------------------------------------------
             Orbital Energies (a.u.) and Symmetries
 --------------------------------------------------------------

 Alpha MOs, Unrestricted
 -- Occupied --                  
-105.06  -11.58  -11.48  -11.48  -11.48  -11.46  -11.46  -10.78
  1 A1    2 A1    3 A1    1 B1    4 A1    2 B1    5 A1    6 A1                 
 -8.251  -8.249  -8.247  -1.435  -1.345  -1.252  -1.239  -1.070
  1 B2    7 A1    3 B1    8 A1    9 A1    4 B1   10 A1    5 B1                 
 -1.041  -0.929  -0.875  -0.854  -0.815  -0.814  -0.792  -0.730
 11 A1   12 A1    6 B1   13 A1   14 A1    7 B1    2 B2    8 B1                 
 -0.725  -0.689  -0.662  -0.597  -0.564
 15 A1    3 B2    9 B1    4 B2    1 A2                                         
 -- Virtual --                   
 -0.126  -0.089  -0.087  -0.069  -0.069  -0.066  -0.053  -0.051
  5 B2    2 A2   16 A1   10 B1   17 A1    6 B2   18 A1   19 A1                 
 -0.049  -0.045  -0.045  -0.033  -0.027  -0.027  -0.024  -0.023
 11 B1    3 A2    7 B2   20 A1   21 A1   12 B1   22 A1   13 B1                 
 -0.023  -0.022  -0.020  -0.020  -0.010  -0.008  -0.008  -0.005
  8 B2    4 A2   23 A1    9 B2   14 B1   24 A1   25 A1   15 B1                 
 -0.003   0.002   0.002   0.013   0.014   0.027   0.029   0.038
 10 B2   26 A1   16 B1   27 A1   17 B1   11 B2   28 A1   29 A1                 
  0.042   0.046   0.050   0.065   0.072   0.072   0.085   0.090
 12 B2    5 A2   18 B1   30 A1   31 A1   13 B2   19 B1   32 A1                 
  0.092   0.093   0.095   0.099   0.108   0.109   0.113   0.121
  6 A2   20 B1   14 B2   15 B2   33 A1   21 B1   22 B1   34 A1                 
  0.126   0.133   0.147   0.150   0.151   0.163   0.163   0.179
 35 A1   23 B1   36 A1   37 A1   24 B1   16 B2   38 A1   25 B1                 
  0.200   0.210   0.231   0.243   0.246   0.262   0.265   0.315
 26 B1   39 A1   40 A1   41 A1   27 B1   28 B1   42 A1   43 A1                 
  0.333   0.341   0.350   0.447   0.449   0.467   0.476   0.479
 29 B1   44 A1   30 B1   45 A1   31 B1   32 B1   17 B2   46 A1                 
  0.536   0.538   0.542   0.549   0.559   0.567   0.578   0.603
 47 A1   18 B2   33 B1   48 A1   34 B1   19 B2    7 A2   35 B1                 
  0.612   0.613   0.636   0.684   0.689   0.706   0.745   0.747
 20 B2   49 A1    8 A2   50 A1   21 B2   51 A1   52 A1   36 B1                 
  0.757   0.774   0.829   0.830   0.844   0.850   0.873   0.885
 37 B1   53 A1   54 A1   38 B1   22 B2   55 A1   56 A1   39 B1                 
  0.893   0.901   0.924   0.931   0.968   0.991   1.003   1.015
 57 A1   40 B1    9 A2   41 B1   58 A1   42 B1   10 A2   23 B2                 
  1.017   1.061   1.102   1.135   1.155   1.237   1.265   1.281
 59 A1   60 A1   11 A2   24 B2   12 A2   61 A1   43 B1   62 A1                 
  1.353   1.455   1.519   1.558   1.583   1.618   1.625   1.631
 25 B2   63 A1   44 B1   64 A1   45 B1   13 A2   26 B2   65 A1                 
  1.673   1.707   1.711   1.749   1.787   1.808   1.845   1.908
 27 B2   66 A1   46 B1   67 A1   47 B1   28 B2   14 A2   48 B1                 
  1.961   1.985   2.001   2.020   2.027   2.038   2.063   2.112
 68 A1   15 A2   29 B2   49 B1   69 A1   50 B1   30 B2   70 A1                 
  2.135   2.159   2.167   2.338   2.369   2.411   2.421   2.532
 51 B1   16 A2   71 A1   31 B2   52 B1   32 B2   17 A2   53 B1                 
  2.537   2.597   2.603   2.624   2.656   2.728   2.769   2.802
 72 A1   54 B1   73 A1   74 A1   55 B1   75 A1   76 A1   77 A1                 
  2.822   2.833   2.836   2.843   2.855   2.952   2.978   2.992
 56 B1   33 B2   78 A1   79 A1   57 B1   34 B2   18 A2   80 A1                 
  2.996   3.041   3.076   3.114   3.244   3.341   3.386   3.527
 58 B1   35 B2   19 A2   59 B1   36 B2   60 B1   81 A1   61 B1                 
  3.569   3.690   3.705   3.803   3.960   4.177   4.229   4.296
 82 A1   62 B1   83 A1   84 A1   85 A1   63 B1   86 A1   64 B1                 
  4.298   4.899   5.034   5.210   5.227   5.517   5.562   5.963
 87 A1   88 A1   65 B1   89 A1   66 B1   90 A1   67 B1   91 A1                 
  9.425   9.498   9.582  10.216  20.393  20.466  20.493  20.594
 37 B2   68 B1   92 A1   93 A1   94 A1   95 A1   69 B1   96 A1                 
 20.637  20.905  32.799  32.855  32.930  79.957  80.038  80.068
 70 B1   97 A1   38 B2   71 B1   98 A1   99 A1  100 A1   72 B1                 
 80.152  80.191  80.393 106.666 106.710 106.772 115.844 321.796
101 A1   73 B1  102 A1   39 B2   74 B1  103 A1  104 A1  105 A1                 
321.876 321.905 321.975 322.009 322.172 364.764 364.797 364.846
106 A1   75 B1  107 A1   76 B1  108 A1   40 B2   77 B1  109 A1                 
610.1681431.3631431.4401431.4661431.5241431.5551431.6901551.416
110 A1  111 A1  112 A1   78 B1  113 A1   79 B1  114 A1   41 B2                 
*******1551.4742284.9118391.6898749.5978749.6738749.6968749.740
 80 B1  115 A1  116 A1  117 A1  118 A1  119 A1   81 B1  120 A1                 
*******8749.876****************
 82 B1  121 A1  122 A1  123 A1                                                 

 Beta MOs, Unrestricted
 -- Occupied --                  
-105.06  -11.57  -11.47  -11.47  -11.47  -11.47  -11.47  -10.78
  1 A1    2 A1    1 B1    3 A1    4 A1    2 B1    5 A1    6 A1                 
 -8.250  -8.246  -8.243  -1.408  -1.332  -1.250  -1.198  -1.063
  7 A1    3 B1    1 B2    8 A1    9 A1    4 B1   10 A1    5 B1                 
 -1.028  -0.923  -0.870  -0.849  -0.814  -0.806  -0.727  -0.724
 11 A1   12 A1    6 B1   13 A1    7 B1   14 A1    8 B1   15 A1                 
 -0.708  -0.658  -0.638  -0.569
  2 B2    9 B1    3 B2    1 A2                                                 
 -- Virtual --                   
 -0.257  -0.086  -0.069  -0.068  -0.068  -0.067  -0.054  -0.053
  4 B2   16 A1   10 B1   17 A1    2 A2    5 B2    6 B2   18 A1                 
 -0.050  -0.049  -0.045  -0.037  -0.033  -0.027  -0.026  -0.024
 19 A1   11 B1    3 A2    7 B2   20 A1   12 B1   21 A1   22 A1                 
 -0.023  -0.022  -0.021  -0.019  -0.018  -0.010  -0.008  -0.006
 13 B1    8 B2    4 A2   23 A1    9 B2   14 B1   24 A1   25 A1                 
 -0.005  -0.003   0.002   0.002   0.014   0.016   0.026   0.031
 15 B1   10 B2   26 A1   16 B1   17 B1   27 A1   11 B2   28 A1                 
  0.040   0.047   0.050   0.054   0.066   0.074   0.083   0.085
 29 A1    5 A2   18 B1   12 B2   30 A1   31 A1   13 B2   19 B1                 
  0.090   0.093   0.095   0.101   0.108   0.109   0.110   0.114
 32 A1   20 B1    6 A2   14 B2   21 B1   15 B2   33 A1   22 B1                 
  0.121   0.129   0.133   0.150   0.151   0.151   0.165   0.179
 34 A1   35 A1   23 B1   36 A1   24 B1   37 A1   38 A1   25 B1                 
  0.185   0.200   0.214   0.231   0.248   0.252   0.263   0.270
 16 B2   26 B1   39 A1   40 A1   27 B1   41 A1   28 B1   42 A1                 
  0.318   0.334   0.345   0.350   0.449   0.451   0.467   0.485
 43 A1   29 B1   44 A1   30 B1   45 A1   31 B1   32 B1   17 B2                 
  0.489   0.537   0.548   0.554   0.557   0.567   0.583   0.600
 46 A1   47 A1   33 B1   18 B2   34 B1   48 A1    7 A2   19 B2                 
  0.605   0.617   0.635   0.643   0.692   0.700   0.710   0.747
 35 B1   49 A1    8 A2   20 B2   50 A1   21 B2   51 A1   52 A1                 
  0.749   0.758   0.781   0.830   0.834   0.853   0.863   0.879
 36 B1   37 B1   53 A1   38 B1   54 A1   55 A1   22 B2   56 A1                 
  0.885   0.901   0.903   0.932   0.939   0.975   0.997   1.019
 39 B1   57 A1   40 B1   41 B1    9 A2   58 A1   42 B1   59 A1                 
  1.024   1.028   1.072   1.105   1.153   1.174   1.245   1.266
 23 B2   10 A2   60 A1   11 A2   24 B2   12 A2   61 A1   43 B1                 
  1.284   1.371   1.463   1.521   1.566   1.584   1.629   1.630
 62 A1   25 B2   63 A1   44 B1   64 A1   45 B1   26 B2   13 A2                 
  1.637   1.686   1.705   1.717   1.758   1.795   1.813   1.845
 65 A1   27 B2   46 B1   66 A1   67 A1   47 B1   28 B2   14 A2                 
  1.908   1.963   2.004   2.008   2.017   2.037   2.038   2.078
 48 B1   68 A1   15 A2   29 B2   49 B1   69 A1   50 B1   30 B2                 
  2.117   2.141   2.163   2.179   2.347   2.371   2.420   2.431
 70 A1   51 B1   16 A2   71 A1   31 B2   52 B1   32 B2   17 A2                 
  2.534   2.542   2.598   2.604   2.625   2.657   2.730   2.773
 53 B1   72 A1   54 B1   73 A1   74 A1   55 B1   75 A1   76 A1                 
  2.802   2.822   2.836   2.844   2.852   2.855   2.973   2.982
 77 A1   56 B1   78 A1   79 A1   33 B2   57 B1   34 B2   18 A2                 
  2.995   2.997   3.068   3.076   3.114   3.255   3.345   3.392
 80 A1   58 B1   35 B2   19 A2   59 B1   36 B2   60 B1   81 A1                 
  3.533   3.569   3.691   3.708   3.806   3.967   4.178   4.234
 61 B1   82 A1   62 B1   83 A1   84 A1   85 A1   63 B1   86 A1                 
  4.300   4.301   4.904   5.040   5.217   5.229   5.527   5.563
 87 A1   64 B1   88 A1   65 B1   89 A1   66 B1   90 A1   67 B1                 
  5.966   9.432   9.499   9.582  10.219  20.397  20.468  20.493
 91 A1   37 B2   68 B1   92 A1   93 A1   94 A1   95 A1   69 B1                 
 20.599  20.637  20.907  32.803  32.856  32.930  79.959  80.039
 96 A1   70 B1   97 A1   38 B2   71 B1   98 A1   99 A1  100 A1                 
 80.068  80.154  80.191  80.393 106.669 106.711 106.772 115.845
 72 B1  101 A1   73 B1  102 A1   39 B2   74 B1  103 A1  104 A1                 
321.797 321.876 321.905 321.975 322.009 322.172 364.765 364.798
105 A1  106 A1   75 B1  107 A1   76 B1  108 A1   40 B2   77 B1                 
364.846 610.1681431.3631431.4401431.4661431.5241431.5551431.690
109 A1  110 A1  111 A1  112 A1   78 B1  113 A1   79 B1  114 A1                 
*******1551.4381551.4742284.9118391.6898749.5978749.6738749.696
 41 B2   80 B1  115 A1  116 A1  117 A1  118 A1  119 A1   81 B1                 
*******8749.7688749.876****************
120 A1   82 B1  121 A1  122 A1  123 A1                                         
 --------------------------------------------------------------

          Ground-State Mulliken Net Atomic Charges

     Atom                 Charge (a.u.)    Spin (a.u.)
  --------------------------------------------------------
      1 H                     0.275085      -0.032626
      2 C                    -0.416721       0.275325
      3 C                    -0.334967      -0.439211
      4 H                     0.311049       0.022021
      5 C                    -0.197117       0.806094
      6 H                     0.286967      -0.046841
      7 C                    -0.334967      -0.439211
      8 H                     0.311049       0.022021
      9 C                    -0.416721       0.275325
     10 H                     0.275085      -0.032626
     11 C                     0.392817       0.472122
     12 Cl                    0.848440       0.117607
  --------------------------------------------------------
  Sum of atomic charges =     1.000000
  Sum of spin   charges =     1.000000

 -----------------------------------------------------------------
                    Cartesian Multipole Moments
 -----------------------------------------------------------------
    Charge (ESU x 10^10)
                 4.8032
    Dipole Moment (Debye)
         X       0.0000      Y      -0.0000      Z      -3.4357
       Tot       3.4357
    Quadrupole Moments (Debye-Ang)
        XX     -33.4906     XY      -0.0000     YY     -47.6577
        XZ      -0.0000     YZ      -0.0000     ZZ     -25.8987
    Octopole Moments (Debye-Ang^2)
       XXX       0.0000    XXY      -0.0000    XYY       0.0000
       YYY      -0.0000    XXZ      -7.3501    XYZ       0.0000
       YYZ       5.5506    XZZ       0.0000    YZZ      -0.0000
       ZZZ     -17.6087
    Hexadecapole Moments (Debye-Ang^3)
      XXXX    -223.6257   XXXY      -0.0000   XXYY     -62.2304
      XYYY       0.0000   YYYY     -52.6255   XXXZ      -0.0000
      XXYZ       0.0000   XYYZ      -0.0000   YYYZ       0.0000
      XXZZ    -152.0152   XYZZ      -0.0000   YYZZ    -146.1639
      XZZZ      -0.0000   YZZZ       0.0000   ZZZZ    -602.5864
 -----------------------------------------------------------------
Archival summary:
1\1\node24\SP\ProcedureUnspecified\BasisUnspecified\l165(1+,2)\krylov\MonOct1510:12:542018MonOct1510:12:542018\0\\#,ProcedureUnspecified,BasisUnspecified,\\1,2\Cl\C,1,1.73093\C,2,1.39121,1,119.398\H,3,1.08039,2,119.798,1,0,0\C,2,1.39121,1,119.398,3,-180,0\H,5,1.08039,2,119.798,1,0,0\C,3,1.39191,2,119.079,1,180,0\H,7,1.08135,3,119.367,2,-180,0\C,5,1.39191,2,119.079,1,-180,0\H,9,1.08135,5,119.367,2,180,0\C,7,1.39245,3,120.451,2,0,0\H,11,1.08085,7,120.132,3,-180,0\\HF=-689.385936\\@

 Total job time:  11869.33s(wall), 81684.39s(cpu) 
 Mon Oct 15 10:12:54 2018

        *************************************************************
        *                                                           *
        *  Thank you very much for using Q-Chem.  Have a nice day.  *
        *                                                           *
        *************************************************************


