Q-Chem Developer Version!
                  Welcome to Q-Chem
     A Quantum Leap Into The Future Of Chemistry


 Q-Chem 5.1, Q-Chem, Inc., Pleasanton, CA (2018)

 Yihan Shao,  Zhengting Gan,  E. Epifanovsky,  A. T. B. Gilbert,  M. Wormit,  
 J. Kussmann,  A. W. Lange,  A. Behn,  Jia Deng,  Xintian Feng,  D. Ghosh,  
 M. Goldey,  P. R. Horn,  L. D. Jacobson,  I. Kaliman,  T. Kus,  A. Landau,  
 Jie Liu,  E. I. Proynov,  R. M. Richard,  R. P. Steele,  E. J. Sundstrom,  
 H. L. Woodcock III,  P. M. Zimmerman,  D. Zuev,  B. Albrecht,  E. Alguire,  
 S. A. Baeppler,  D. Barton,  Z. Benda,  Y. A. Bernard,  E. J. Berquist,  
 K. B. Bravaya,  H. Burton,  D. Casanova,  Chun-Min Chang,  Yunqing Chen,  
 A. Chien,  K. D. Closser,  M. P. Coons,  S. Coriani,  S. Dasgupta,  
 A. L. Dempwolff,  M. Diedenhofen,  Hainam Do,  R. G. Edgar,  Po-Tung Fang,  
 S. Faraji,  S. Fatehi,  Qingguo Feng,  K. D. Fenk,  J. Fosso-Tande,  
 Qinghui Ge,  A. Ghysels,  G. Gidofalvi,  J. Gomes,  J. Gonthier,  A. Gunina,  
 D. Hait,  M. W. D. Hanson-Heine,  P. H. P. Harbach,  A. W. Hauser,  
 J. E. Herr,  E. G. Hohenstein,  Z. C. Holden,  Kerwin Hui,  B. C. Huynh,  
 T.-C. Jagau,  Hyunjun Ji,  B. Kaduk,  K. Khistyaev,  Jaehoon Kim,  
 P. Klunzinger,  K. Koh,  D. Kosenkov,  L. Koulias,  T. Kowalczyk,  
 C. M. Krauter,  A. Kunitsa,  Ka Un Lao,  A. Laurent,  K. V. Lawler,  
 Joonho Lee,  D. Lefrancois,  S. Lehtola,  D. S. Levine,  Yi-Pei Li,  
 You-Sheng Lin,  Fenglai Liu,  E. Livshits,  A. Luenser,  P. Manohar,  
 E. Mansoor,  S. F. Manzer,  Shan-Ping Mao,  Yuezhi Mao,  N. Mardirossian,  
 A. V. Marenich,  T. Markovich,  L. A. Martinez-Martinez,  S. A. Maurer,  
 N. J. Mayhall,  S. C. McKenzie,  J.-M. Mewes,  A. F. Morrison,  
 J. W. Mullinax,  K. Nanda,  T. S. Nguyen-Beck,  R. Olivares-Amaya,  
 J. A. Parkhill,  T. M. Perrine,  F. Plasser,  P. Pokhilko,  S. Prager,  
 A. Prociuk,  E. Ramos,  D. R. Rehn,  F. Rob,  M. Schneider,  N. Sergueev,  
 S. M. Sharada,  S. Sharma,  D. W. Small,  T. Stauch,  T. Stein,  
 Yu-Chuan Su,  A. J. W. Thom,  A. Tkatchenko,  T. Tsuchimochi,  N. M. Tubman,  
 L. Vogt,  M. L. Vidal,  O. Vydrov,  M. A. Watson,  J. Wenzel,  
 M. de Wergifosse,  T. A. Wesolowski,  A. White,  J. Witte,  A. Yamada,  
 Jun Yang,  K. Yao,  S. Yeganeh,  S. R. Yost,  Zhi-Qiang You,  A. Zech,  
 Igor Ying Zhang,  Xing Zhang,  Yan Zhao,  Ying Zhu,  B. R. Brooks,  
 G. K. L. Chan,  C. J. Cramer,  M. S. Gordon,  W. J. Hehre,  A. Klamt,  
 M. W. Schmidt,  C. D. Sherrill,  D. G. Truhlar,  A. Aspuru-Guzik,  R. Baer,  
 A. T. Bell,  N. A. Besley,  Jeng-Da Chai,  A. E. DePrince, III,  
 R. A. DiStasio Jr.,  A. Dreuw,  B. D. Dunietz,  T. R. Furlani,  
 Chao-Ping Hsu,  Yousung Jung,  Jing Kong,  D. S. Lambrecht,  WanZhen Liang,  
 C. Ochsenfeld,  V. A. Rassolov,  L. V. Slipchenko,  J. E. Subotnik,  
 T. Van Voorhis,  J. M. Herbert,  A. I. Krylov,  P. M. W. Gill,  M. Head-Gordon

 Contributors to earlier versions of Q-Chem not listed above: 
 R. D. Adamson,  B. Austin,  J. Baker,  G. J. O. Beran,  K. Brandhorst,  
 S. T. Brown,  E. F. C. Byrd,  A. K. Chakraborty,  C.-L. Cheng,  
 Siu Hung Chien,  D. M. Chipman,  D. L. Crittenden,  H. Dachsel,  
 R. J. Doerksen,  A. D. Dutoi,  L. Fusti-Molnar,  W. A. Goddard III,  
 A. Golubeva-Zadorozhnaya,  S. R. Gwaltney,  G. Hawkins,  A. Heyden,  
 S. Hirata,  G. Kedziora,  F. J. Keil,  C. Kelley,  Jihan Kim,  R. A. King,  
 R. Z. Khaliullin,  P. P. Korambath,  W. Kurlancheek,  A. M. Lee,  M. S. Lee,  
 S. V. Levchenko,  Ching Yeh Lin,  D. Liotard,  R. C. Lochan,  I. Lotan,  
 P. E. Maslen,  N. Nair,  D. P. O'Neill,  D. Neuhauser,  E. Neuscamman,  
 C. M. Oana,  R. Olson,  B. Peters,  R. Peverati,  P. A. Pieniazek,  
 Y. M. Rhee,  J. Ritchie,  M. A. Rohrdanz,  E. Rosta,  N. J. Russ,  
 H. F. Schaefer III,  N. E. Schultz,  N. Shenvi,  A. C. Simmonett,  A. Sodt,  
 D. Stuck,  K. S. Thanthiriwatte,  V. Vanovschi,  Tao Wang,  A. Warshel,  
 C. F. Williams,  Q. Wu,  X. Xu,  W. Zhang

 Please cite Q-Chem as follows:
 Y. Shao et al., Mol. Phys. 113, 184-215 (2015)
 DOI: 10.1080/00268976.2014.952696

 Q-Chem 5.1.1 for Intel X86 EM64T Linux

 Parts of Q-Chem use Armadillo 8.300.2 (Tropical Shenanigans).
 http://arma.sourceforge.net/

 Q-Chem begins on Sun Oct 14 03:00:35 2018  

node24
Host: 0

     Scratch files written to /scratch/krylov/qchem5322//
Core orbitals will be frozen
Input Ideriv = 0
Curr. Ideriv = -1
Max.  Ideriv = 0

Checking the input file for inconsistencies... 	...done.

--------------------------------------------------------------
User input:
--------------------------------------------------------------
$comment
Optimized Cl-Bz, XAS, 
6-311(2+,+)G** with uncontacted core on carbon and chlorine (both S and P)
$end

$molecule
0 1
 H        -2.1400320233    0.0000000000    0.5090177858
 C        -1.2120583232    0.0000000000   -0.0442490642
 C        -1.2042956497    0.0000000000   -1.4361358281
 H        -2.1437187877    0.0000000000   -1.9716770234
 C         0.0000000000    0.0000000000   -2.1351330277
 H         0.0000000000    0.0000000000   -3.2159870334
 C         1.2042956497    0.0000000000   -1.4361358281
 H         2.1437187877    0.0000000000   -1.9716770234
 C         1.2120583232    0.0000000000   -0.0442490642
 H         2.1400320233    0.0000000000    0.5090177858
 C         0.0000000000    0.0000000000    0.6386615242
 Cl        0.0000000000    0.0000000000    2.3695929760
$end

$rem
   JOB_TYPE  =  SP
   BASIS  =  general
   METHOD  =  EOM-CCSD
   CVS_EE_STATES = [6,0,6,6]
   CC_MEMORY = 80000
   cc_trans_prop = 1
$end

$basis
H    0
S    3    1.000000
   3.38650000E+01    2.54938000E-02 
   5.09479000E+00    1.90373000E-01 
   1.15879000E+00    8.52161000E-01 
S    1    1.000000
   3.25840000E-01    1.00000000E+00 
S    1    1.000000
   1.02741000E-01    1.00000000E+00 
S    1    1.000000
   3.60000000E-02    1.00000000E+00 
P    1    1.000000
   7.50000000E-01    1.00000000E+00 
****
C    0
S    1    1.000000
   4.56324000E+03    1.96665000E-03 
S    1    1.000000
   6.82024000E+02    1.52306000E-02 
S    1    1.000000
   1.54973000E+02    7.61269000E-02 
S    1    1.000000
   4.44553000E+01    2.60801000E-01 
S    1    1.000000
   1.30290000E+01    6.16462000E-01 
S    1    1.000000
   1.82773000E+00    2.21006000E-01 
SP   3    1.000000
   2.09642000E+01    1.14660000E-01   4.02487000E-02 
   4.80331000E+00    9.19999000E-01   2.37594000E-01 
   1.45933000E+00   -3.03068000E-03   8.15854000E-01 
SP   1    1.000000
   4.83456000E-01    1.00000000E+00   1.00000000E+00 
SP   1    1.000000
   1.45585000E-01    1.00000000E+00   1.00000000E+00 
SP   1    1.000000
   4.38000000E-02    1.00000000E+00   1.00000000E+00 
SP   1    1.000000
   1.31927711E-02    1.00000000E+00   1.00000000E+00 
D    1    1.000000
   6.26000000E-01    1.00000000E+00 
****
Cl   0
S    1    1.000000
   1.05819000E+05    7.38000000E-04 
S    1    1.000000
   1.58720000E+04    5.71800000E-03 
S    1    1.000000
   3.61965000E+03    2.94950000E-02 
S    1    1.000000
   1.03080000E+03    1.17286000E-01 
S    1    1.000000
   3.39908000E+02    3.62949000E-01 
S    1    1.000000
   1.24538000E+02    5.84149000E-01 
S    3    1.000000
   1.24538000E+02    1.34177000E-01 
   4.95135000E+01    6.24250000E-01 
   2.08056000E+01    2.91756000E-01 
S    1    1.000000
   6.58346000E+00    1.00000000E+00 
S    1    1.000000
   2.56468000E+00    1.00000000E+00 
S    1    1.000000
   5.59763000E-01    1.00000000E+00 
S    1    1.000000
   1.83273000E-01    1.00000000E+00 
P    1    1.000000
   5.89776000E+02    2.39100000E-03 
P    1    1.000000
   1.39849000E+02    1.85040000E-02 
P    1    1.000000
   4.51413000E+01    8.13770000E-02 
P    1    1.000000
   1.68733000E+01    2.21552000E-01 
P    1    1.000000
   6.74110000E+00    7.72569000E-01 
P    2    1.000000
   6.74110000E+00   -1.57224400E+00 
   2.77152000E+00    9.92389000E-01 
P    1    1.000000
   1.02387000E+00    1.00000000E+00 
P    1    1.000000
   3.81368000E-01    1.00000000E+00 
P    1    1.000000
   1.09437000E-01    1.00000000E+00 
SP   1    1.000000
   4.83000000E-02    1.00000000E+00   1.00000000E+00 
SP   1    1.000000
   1.45481928E-02    1.00000000E+00   1.00000000E+00 
D    1    1.000000
   7.50000000E-01    1.00000000E+00 
****
$end

--------------------------------------------------------------
 ----------------------------------------------------------------
             Standard Nuclear Orientation (Angstroms)
    I     Atom           X                Y                Z
 ----------------------------------------------------------------
    1      H      -2.1400320233     0.0000000000     0.3814604176
    2      C      -1.2120583232     0.0000000000    -0.1718064324
    3      C      -1.2042956497     0.0000000000    -1.5636931963
    4      H      -2.1437187877     0.0000000000    -2.0992343916
    5      C      -0.0000000000     0.0000000000    -2.2626903959
    6      H      -0.0000000000     0.0000000000    -3.3435444016
    7      C       1.2042956497     0.0000000000    -1.5636931963
    8      H       2.1437187877     0.0000000000    -2.0992343916
    9      C       1.2120583232    -0.0000000000    -0.1718064324
   10      H       2.1400320233    -0.0000000000     0.3814604176
   11      C       0.0000000000    -0.0000000000     0.5111041560
   12      Cl      0.0000000000    -0.0000000000     2.2420356078
 ----------------------------------------------------------------
 Molecular Point Group                 C2v   NOp =  4
 Largest Abelian Subgroup              C2v   NOp =  4
 Nuclear Repulsion Energy =   316.4076139427 hartrees
 There are       29 alpha and       29 beta electrons

 Q-Chem warning in module forms1/BasisType.C, line 1703:

 Setting pure/cartesian flag to 2111 for general basis


 Requested basis set is non-standard
 There are 120 shells and 272 basis functions
MEM_TOTAL is adjusted to CC_MEMORY + MEM_STATIC!
 Total memory of 80192MB is distributed as follows: 
   QALLOC including MEM_STATIC uses 192MB
   MEM_STATIC is set to 192MB
   CCMAN JOB total memory use is  80000MB
 Warning: actual memory use might exceed 80192MB

 Total QAlloc Memory Limit    192 MB
 Mega-Array Size       188 MB
 MEM_STATIC part       192 MB

                       Distance Matrix (Angstroms)
             H (  1)   C (  2)   C (  3)   H (  4)   C (  5)   H (  6)
   C (  2)  1.080389
   C (  3)  2.158524  1.391908
   H (  4)  2.480698  2.140787  1.081351
   C (  5)  3.401657  2.416791  1.392453  2.149941
   H (  6)  4.295975  3.395439  2.148999  2.478677  1.080854
   C (  7)  3.868869  2.788569  2.408591  3.390576  1.392453  2.148999
   H (  8)  4.950189  3.869912  3.390576  4.287438  2.149941  2.478677
   C (  9)  3.397442  2.424117  2.788569  3.869912  2.416791  3.395439
   H ( 10)  4.280064  3.397442  3.868869  4.950189  3.401657  4.295975
   C ( 11)  2.143955  1.391205  2.398981  3.377780  2.773795  3.854649
   Cl( 12)  2.835750  2.701059  3.991729  4.841710  4.504726  5.585580
             C (  7)   H (  8)   C (  9)   H ( 10)   C ( 11)
   H (  8)  1.081351
   C (  9)  1.391908  2.140787
   H ( 10)  2.158524  2.480698  1.080389
   C ( 11)  2.398981  3.377780  1.391205  2.143955
   Cl( 12)  3.991729  4.841710  2.701059  2.835750  1.730931

 A cutoff of  1.0D-14 yielded   5925 shell pairs
 There are     34620 function pairs (     36530 Cartesian)

 -------------------------------------------------------
 OpenMP Integral Computing Module                       
 Release: version 1.0, May 2013, Q-Chem Inc. Pittsburgh 
 -------------------------------------------------------
 Integral Job Info:
 Integral job number is                      11
 Integral operator is                         1
 short-range coefficients                     0
 long-range coefficients              100000000
 Omega coefficients                           0
 if combine SR and LR in K                    0
 Integral screening is                        0
 Integral computing path is                   2
 max size of driver memory is            800000
 size of driver memory is                593474
 size of scratch memory is              1367512
 max col of scratch BK array               1296
 max len of scratch array in speh3          155
 max len of scratch index in speh4           18
 max int batch size is                      520
 min int batch size is                       52
 fixed nKL is                                52
 max L of basis functions is                  2
 order of int derivative is                   0
 number of shells is                        120
 number of basis is                         279
 number of cartesian basis is               279
 number of contracted shell pairs          5925
 number of primitive shell pairs           7829
 maxK2 (contraction) of shell pair            9
 max number of K2 of shell pair               1
 max number of CS2 of shell pair           1679
 max number of PS2 of shell pair           1679
 mem total for path MDJ                  543004
 -------------------------------------------------------
 Smallest overlap matrix eigenvalue = 1.05E-08
 Linear dependence detected in AO basis
 Tighter screening thresholds may be required for diffuse basis sets
 Use S2THRESH > 14 and THRESH = 14 in case of SCF convergence issues
 Number of orthogonalized atomic orbitals = 265
 Maximum deviation from orthogonality = 3.105E-10

 Scale SEOQF with 1.000000e-01/1.000000e-01/1.000000e-01

 Standard Electronic Orientation quadrupole field applied
 Nucleus-field energy     =    -0.0000000161 hartrees
 Guess MOs from core Hamiltonian diagonalization

 -----------------------------------------------------------------------
  General SCF calculation program by
  Eric Jon Sundstrom, Paul Horn, Yuezhi Mao, Dmitri Zuev, Alec White,
  David Stuck, Shaama M.S., Shane Yost, Joonho Lee, David Small,
  Daniel Levine, Susi Lehtola, Hugh Burton, Evgeny Epifanovsky
 -----------------------------------------------------------------------
 Hartree-Fock
 using 8 threads for integral computing
 -------------------------------------------------------
 OpenMP Integral computing Module                
 Release: version 2.0, May 2017, Q-Chem Inc. Pleasanton 
 -------------------------------------------------------
 A restricted SCF calculation will be
 performed using DIIS
 SCF converges when DIIS error is below 1.0e-08
 ---------------------------------------
  Cycle       Energy         DIIS error
 ---------------------------------------
    1    -537.1855718775      2.52e-01  
    2    -373.6823031714      9.61e-02  
    3    -432.9347095394      1.79e-01  
    4    -513.0460691483      1.41e-01  
    5    -566.6366261377      1.12e-01  
    6    -627.8282649114      7.99e-02  
    7    -673.8698737213      4.63e-02  
    8    -682.8725216094      2.64e-02  
    9    -688.9575624623      9.65e-03  
   10    -689.5830385087      3.08e-03  
   11    -689.6721499856      9.49e-04  
   12    -689.6807732759      2.57e-04  
   13    -689.6821070444      1.32e-04  
   14    -689.6823788960      3.14e-05  
   15    -689.6823952446      9.31e-06  
   16    -689.6823973078      3.78e-06  
   17    -689.6823977351      1.66e-06  
   18    -689.6823979070      6.66e-07  
   19    -689.6823979316      1.26e-07  
   20    -689.6823979069      4.61e-08  
   21    -689.6823979238      9.32e-09  Convergence criterion met
 ---------------------------------------
 SCF time:   CPU 127.92s  wall 18.00s 
 SCF   energy in the final basis set =     -689.6823979238
 Total energy in the final basis set =     -689.6823979238


 ------------------------------------------------------------------------------

   CCMAN2: suite of methods based on coupled cluster
           and equation of motion theories.

   Components:
   * libvmm-1.3-trunk
     by Evgeny Epifanovsky, Ilya Kaliman.
   * libtensor-2.5-trunk
     by Evgeny Epifanovsky, Michael Wormit, Dmitry Zuev, Sam Manzer, 
        Ilya Kaliman.
   * libcc-2.5-trunk
     by Evgeny Epifanovsky, Arik Landau, Tomasz Kus, Kirill Khistyaev, 
        Dmitry Zuev, Prashant Manohar, Xintian Feng, Anna Krylov, 
        Matthew Goldey, Alec White, Thomas Jagau, Kaushik Nanda, 
        Anastasia Gunina, Alexander Kunitsa, Joonho Lee.

   CCMAN original authors:
   Anna I. Krylov, C. David Sherrill, Steven R. Gwaltney,
   Edward F. C. Byrd (2000)
   Sergey V. Levchenko, Lyudmila V. Slipchenko, Tao Wang,
   Ana-Maria C. Cristian (2003)
   Piotr A. Pieniazek, C. Melania Oana, Evgeny Epifanovsky (2007)
   Prashant Manohar (2009)

 ------------------------------------------------------------------------------


 Allocating and initializing 80000MB of RAM...
 Calculation will run on 8 cores.


 Alpha MOs, Restricted
 -- Occupied --                  
-104.84  -11.31  -11.25  -11.25  -11.25  -11.25  -11.25  -10.57
  1 A1    2 A1    3 A1    1 B1    4 A1    2 B1    5 A1    6 A1                 
 -8.034  -8.031  -8.031  -1.196  -1.124  -1.036  -1.000  -0.850
  7 A1    3 B1    1 B2    8 A1    9 A1    4 B1   10 A1    5 B1                 
 -0.823  -0.715  -0.651  -0.651  -0.607  -0.593  -0.547  -0.520
 11 A1   12 A1    6 B1   13 A1    7 B1   14 A1    2 B2    8 B1                 
 -0.515  -0.471  -0.456  -0.354  -0.338
 15 A1    3 B2    9 B1    1 A2    4 B2                                         
 -- Virtual --                   
  0.014   0.020   0.021   0.032   0.032   0.033   0.043   0.044
 16 A1   10 B1   17 A1    5 B2   18 A1   11 B1    2 A2    6 B2                 
  0.045   0.048   0.054   0.055   0.056   0.063   0.063   0.065
 19 A1   20 A1   12 B1    3 A2    7 B2   21 A1    8 B2   13 B1                 
  0.068   0.069   0.070   0.073   0.074   0.078   0.091   0.096
 22 A1    9 B2   14 B1   23 A1   15 B1   24 A1   25 A1   16 B1                 
  0.100   0.102   0.104   0.106   0.126   0.163   0.169   0.172
 26 A1    4 A2   10 B2   17 B1   27 A1   11 B2   28 A1   18 B1                 
  0.176   0.180   0.181   0.192   0.211   0.213   0.214   0.222
 29 A1    5 A2   12 B2   30 A1   19 B1   31 A1   13 B2   32 A1                 
  0.222   0.229   0.232   0.235   0.238   0.243   0.244   0.247
 20 B1   14 B2    6 A2   21 B1   33 A1   15 B2   34 A1   22 B1                 
  0.252   0.264   0.280   0.291   0.295   0.303   0.314   0.330
 23 B1   35 A1   36 A1   24 B1   25 B1   37 A1   38 A1   26 B1                 
  0.357   0.366   0.378   0.414   0.418   0.432   0.441   0.491
 16 B2   39 A1   40 A1   41 A1   27 B1   42 A1   28 B1   43 A1                 
  0.500   0.509   0.509   0.620   0.630   0.643   0.648   0.661
 29 B1   44 A1   30 B1   45 A1   31 B1   32 B1   17 B2   46 A1                 
  0.720   0.730   0.742   0.743   0.745   0.772   0.782   0.793
 47 A1   33 B1   48 A1   18 B2   34 B1    7 A2   19 B2   35 B1                 
  0.821   0.822   0.823   0.880   0.883   0.898   0.934   0.936
 49 A1    8 A2   20 B2   50 A1   21 B2   51 A1   52 A1   36 B1                 
  0.955   0.973   1.018   1.023   1.039   1.060   1.067   1.081
 37 B1   53 A1   38 B1   54 A1   55 A1   39 B1   22 B2   56 A1                 
  1.094   1.100   1.132   1.139   1.173   1.192   1.220   1.225
 57 A1   40 B1   41 B1    9 A2   58 A1   42 B1   59 A1   23 B2                 
  1.235   1.271   1.309   1.352   1.377   1.443   1.467   1.474
 10 A2   60 A1   11 A2   24 B2   12 A2   61 A1   43 B1   62 A1                 
  1.581   1.662   1.728   1.776   1.787   1.824   1.831   1.844
 25 B2   63 A1   44 B1   64 A1   45 B1   26 B2   13 A2   65 A1                 
  1.891   1.908   1.909   1.961   1.999   2.008   2.042   2.103
 27 B2   66 A1   46 B1   67 A1   47 B1   28 B2   14 A2   48 B1                 
  2.168   2.218   2.220   2.221   2.236   2.243   2.285   2.323
 68 A1   49 B1   15 A2   29 B2   50 B1   69 A1   30 B2   70 A1                 
  2.352   2.368   2.390   2.547   2.574   2.623   2.647   2.736
 51 B1   16 A2   71 A1   31 B2   52 B1   32 B2   17 A2   53 B1                 
  2.748   2.798   2.801   2.830   2.861   2.932   2.976   2.992
 72 A1   73 A1   54 B1   74 A1   55 B1   75 A1   76 A1   77 A1                 
  3.009   3.026   3.036   3.042   3.066   3.190   3.194   3.203
 56 B1   78 A1   79 A1   57 B1   33 B2   34 B2   18 A2   58 B1                 
  3.206   3.283   3.288   3.321   3.473   3.567   3.625   3.757
 80 A1   35 B2   19 A2   59 B1   36 B2   60 B1   81 A1   61 B1                 
  3.782   3.902   3.919   4.022   4.187   4.384   4.442   4.510
 82 A1   62 B1   83 A1   84 A1   85 A1   63 B1   86 A1   87 A1                 
  4.516   5.123   5.263   5.442   5.447   5.754   5.779   6.187
 64 B1   88 A1   65 B1   89 A1   66 B1   90 A1   67 B1   91 A1                 
  9.641   9.707   9.794  10.430  20.635  20.695  20.708  20.825
 37 B2   68 B1   92 A1   93 A1   94 A1   95 A1   69 B1   96 A1                 
 20.852  21.127  33.018  33.069  33.145  80.200  80.266  80.282
 70 B1   97 A1   38 B2   71 B1   98 A1   99 A1  100 A1   72 B1                 
 80.380  80.405  80.613 106.885 106.926 106.989 116.062 322.039
101 A1   73 B1  102 A1   39 B2   74 B1  103 A1  104 A1  105 A1                 
322.101 322.118 322.201 322.223 322.391 364.983 365.014 365.064
106 A1   75 B1  107 A1   76 B1  108 A1   40 B2   77 B1  109 A1                 
610.3861431.6071431.6631431.6801431.7491431.7691431.9081551.634
110 A1  111 A1  112 A1   78 B1  113 A1   79 B1  114 A1   41 B2                 
*******1551.6922285.1298391.9078749.8448749.8938749.9098749.964
 80 B1  115 A1  116 A1  117 A1  118 A1  119 A1   81 B1  120 A1                 
*******8750.093****************
 82 B1  121 A1  122 A1  123 A1                                                 

 Beta MOs, Restricted
 -- Occupied --                  
-104.84  -11.31  -11.25  -11.25  -11.25  -11.25  -11.25  -10.57
  1 A1    2 A1    3 A1    1 B1    4 A1    2 B1    5 A1    6 A1                 
 -8.034  -8.031  -8.031  -1.196  -1.124  -1.036  -1.000  -0.850
  7 A1    3 B1    1 B2    8 A1    9 A1    4 B1   10 A1    5 B1                 
 -0.823  -0.715  -0.651  -0.651  -0.607  -0.593  -0.547  -0.520
 11 A1   12 A1    6 B1   13 A1    7 B1   14 A1    2 B2    8 B1                 
 -0.515  -0.471  -0.456  -0.354  -0.338
 15 A1    3 B2    9 B1    1 A2    4 B2                                         
 -- Virtual --                   
  0.014   0.020   0.021   0.032   0.032   0.033   0.043   0.044
 16 A1   10 B1   17 A1    5 B2   18 A1   11 B1    2 A2    6 B2                 
  0.045   0.048   0.054   0.055   0.056   0.063   0.063   0.065
 19 A1   20 A1   12 B1    3 A2    7 B2   21 A1    8 B2   13 B1                 
  0.068   0.069   0.070   0.073   0.074   0.078   0.091   0.096
 22 A1    9 B2   14 B1   23 A1   15 B1   24 A1   25 A1   16 B1                 
  0.100   0.102   0.104   0.106   0.126   0.163   0.169   0.172
 26 A1    4 A2   10 B2   17 B1   27 A1   11 B2   28 A1   18 B1                 
  0.176   0.180   0.181   0.192   0.211   0.213   0.214   0.222
 29 A1    5 A2   12 B2   30 A1   19 B1   31 A1   13 B2   32 A1                 
  0.222   0.229   0.232   0.235   0.238   0.243   0.244   0.247
 20 B1   14 B2    6 A2   21 B1   33 A1   15 B2   34 A1   22 B1                 
  0.252   0.264   0.280   0.291   0.295   0.303   0.314   0.330
 23 B1   35 A1   36 A1   24 B1   25 B1   37 A1   38 A1   26 B1                 
  0.357   0.366   0.378   0.414   0.418   0.432   0.441   0.491
 16 B2   39 A1   40 A1   41 A1   27 B1   42 A1   28 B1   43 A1                 
  0.500   0.509   0.509   0.620   0.630   0.643   0.648   0.661
 29 B1   44 A1   30 B1   45 A1   31 B1   32 B1   17 B2   46 A1                 
  0.720   0.730   0.742   0.743   0.745   0.772   0.782   0.793
 47 A1   33 B1   48 A1   18 B2   34 B1    7 A2   19 B2   35 B1                 
  0.821   0.822   0.823   0.880   0.883   0.898   0.934   0.936
 49 A1    8 A2   20 B2   50 A1   21 B2   51 A1   52 A1   36 B1                 
  0.955   0.973   1.018   1.023   1.039   1.060   1.067   1.081
 37 B1   53 A1   38 B1   54 A1   55 A1   39 B1   22 B2   56 A1                 
  1.094   1.100   1.132   1.139   1.173   1.192   1.220   1.225
 57 A1   40 B1   41 B1    9 A2   58 A1   42 B1   59 A1   23 B2                 
  1.235   1.271   1.309   1.352   1.377   1.443   1.467   1.474
 10 A2   60 A1   11 A2   24 B2   12 A2   61 A1   43 B1   62 A1                 
  1.581   1.662   1.728   1.776   1.787   1.824   1.831   1.844
 25 B2   63 A1   44 B1   64 A1   45 B1   26 B2   13 A2   65 A1                 
  1.891   1.908   1.909   1.961   1.999   2.008   2.042   2.103
 27 B2   66 A1   46 B1   67 A1   47 B1   28 B2   14 A2   48 B1                 
  2.168   2.218   2.220   2.221   2.236   2.243   2.285   2.323
 68 A1   49 B1   15 A2   29 B2   50 B1   69 A1   30 B2   70 A1                 
  2.352   2.368   2.390   2.547   2.574   2.623   2.647   2.736
 51 B1   16 A2   71 A1   31 B2   52 B1   32 B2   17 A2   53 B1                 
  2.748   2.798   2.801   2.830   2.861   2.932   2.976   2.992
 72 A1   73 A1   54 B1   74 A1   55 B1   75 A1   76 A1   77 A1                 
  3.009   3.026   3.036   3.042   3.066   3.190   3.194   3.203
 56 B1   78 A1   79 A1   57 B1   33 B2   34 B2   18 A2   58 B1                 
  3.206   3.283   3.288   3.321   3.473   3.567   3.625   3.757
 80 A1   35 B2   19 A2   59 B1   36 B2   60 B1   81 A1   61 B1                 
  3.782   3.902   3.919   4.022   4.187   4.384   4.442   4.510
 82 A1   62 B1   83 A1   84 A1   85 A1   63 B1   86 A1   87 A1                 
  4.516   5.123   5.263   5.442   5.447   5.754   5.779   6.187
 64 B1   88 A1   65 B1   89 A1   66 B1   90 A1   67 B1   91 A1                 
  9.641   9.707   9.794  10.430  20.635  20.695  20.708  20.825
 37 B2   68 B1   92 A1   93 A1   94 A1   95 A1   69 B1   96 A1                 
 20.852  21.127  33.018  33.069  33.145  80.200  80.266  80.282
 70 B1   97 A1   38 B2   71 B1   98 A1   99 A1  100 A1   72 B1                 
 80.380  80.405  80.613 106.885 106.926 106.989 116.062 322.039
101 A1   73 B1  102 A1   39 B2   74 B1  103 A1  104 A1  105 A1                 
322.101 322.118 322.201 322.223 322.391 364.983 365.014 365.064
106 A1   75 B1  107 A1   76 B1  108 A1   40 B2   77 B1  109 A1                 
610.3861431.6071431.6631431.6801431.7491431.7691431.9081551.634
110 A1  111 A1  112 A1   78 B1  113 A1   79 B1  114 A1   41 B2                 
*******1551.6922285.1298391.9078749.8448749.8938749.9098749.964
 80 B1  115 A1  116 A1  117 A1  118 A1  119 A1   81 B1  120 A1                 
*******8750.093****************
 82 B1  121 A1  122 A1  123 A1                                                 

 Occupation and symmetry of molecular orbitals

 Point group: C2v (4 irreducible representations).

                           A1   A2   B1   B2    All 
 ----------------------------------------------------
 All molecular orbitals:
  - Alpha                  123  19   82   41    265 
  - Beta                   123  19   82   41    265 
 ----------------------------------------------------
 Alpha orbitals:
  - Frozen occupied        7    0    3    1     11  
  - Active occupied        8    1    6    3     18  
  - Active virtual         108  18   73   37    236 
  - Frozen virtual         0    0    0    0     0   
 ----------------------------------------------------
 Beta orbitals:
  - Frozen occupied        7    0    3    1     11  
  - Active occupied        8    1    6    3     18  
  - Active virtual         108  18   73   37    236 
  - Frozen virtual         0    0    0    0     0   
 ----------------------------------------------------

 Import integrals:   CPU 0.00 s  wall 0.00 s

 Import integrals:   CPU 728.37 s  wall 106.69 s

 MP2 amplitudes:   CPU 6.12 s  wall 5.22 s

Running a double precision version
           CCSD T amplitudes will be solved using DIIS.

           Start     Size      MaxIter   EConv     TConv     
           3         7         100       1.00e-06  1.00e-04  
 ------------------------------------------------------------------------------
           Energy (a.u.)   Ediff      Tdiff       Comment
 ------------------------------------------------------------------------------
          -690.65561156                           
     1    -690.65787570   2.26e-03   9.86e-01     
     2    -690.68764890   2.98e-02   1.34e-01     
     3    -690.68808623   4.37e-04   4.67e-02     
     4    -690.69090777   2.82e-03   1.40e-02     Switched to DIIS steps.
     5    -690.69190819   1.00e-03   1.16e-02     
     6    -690.69193400   2.58e-05   2.14e-03     
     7    -690.69192024   1.38e-05   1.01e-03     
     8    -690.69191922   1.02e-06   1.97e-04     
     9    -690.69191933   1.07e-07   7.41e-05     
 ------------------------------------------------------------------------------
          -690.69191933                           CCSD T converged.

End of double precision
 SCF energy                 = -689.68239792
 MP2 energy                 = -690.65561156
 CCSD correlation energy     =   -1.00952141
 CCSD total energy           = -690.69191933

 CCSD  T1^2 = 0.0079  T2^2 = 0.3940  Leading amplitudes:

 Amplitude    Orbitals with energies
 -0.0210       1 (A2) A                  ->    7 (A2) A                   
              -0.3535                          0.7719                     
 -0.0210       1 (A2) B                  ->    7 (A2) B                   
              -0.3535                          0.7719                     
  0.0202       4 (B2) A                  ->    19 (B2) A                  
              -0.3380                          0.7818                     
  0.0202       4 (B2) B                  ->    19 (B2) B                  
              -0.3380                          0.7818                     

 Amplitude    Orbitals with energies
 -0.0691       1 (A2) A      1 (A2) B    ->    4 (A2) A      4 (A2) B     
              -0.3535       -0.3535            0.1018        0.1018       
  0.0691       1 (A2) A      1 (A2) B    ->    4 (A2) B      4 (A2) A     
              -0.3535       -0.3535            0.1018        0.1018       
  0.0691       1 (A2) B      1 (A2) A    ->    4 (A2) A      4 (A2) B     
              -0.3535       -0.3535            0.1018        0.1018       
 -0.0691       1 (A2) B      1 (A2) A    ->    4 (A2) B      4 (A2) A     
              -0.3535       -0.3535            0.1018        0.1018       

 Computing CCSD intemediates for later calculations in double precision
 Finished.

Running a double precision version
           CCSD Lambda amplitudes will be solved using DIIS.
           Start     Size      MaxIter   EConv     LConv     
           3         7         100       1.00e-06  1.00e-04  
 ------------------------------------------------------------------------------
            Enorm      Ldiff       Comment
 ------------------------------------------------------------------------------
     1     5.69e-02   4.60e-02     
     2     1.01e-02   9.73e-04     
     3     3.44e-03   1.86e-03     
     4     1.40e-03   3.02e-04     Switched to DIIS steps.
     5     4.14e-04   3.23e-04     
     6     1.84e-04   6.68e-05     
     7     5.19e-05   2.19e-05     
     8     2.01e-05   4.24e-06     
     9     6.82e-06   6.57e-07     
    10     2.83e-06   4.35e-08     
    11     1.10e-06   7.94e-08     
    12     4.01e-07   7.79e-08     
 ------------------------------------------------------------------------------
                                   CCSD Lambda converged.

 CCSD calculation:   CPU 2011.20 s  wall 294.57 s

        Solving for CVS-EOMEE-CCSD A1 singlet states.

        CVS-EOMEE-CCSD/MP2 right amplitudes will be solved using Davidson.
        Amplitudes will be solved using standard  algorithm.
     Hard-coded thresholds: 
     LinDepThresh=1.00e-15  NormThresh=1.00e-06  ReorthogonThresh=1.00e-02

      Roots     MaxVec    MaxIter   Precond   Conv      Shift    
      6         120       60        1         1.00e-05  0.00e+00  
 ------------------------------------------------------------------------------
      Iter ConvRoots NVecs ResNorm Current eigenvalues (eV)
 ------------------------------------------------------------------------------
      0    0      6     2.89e+00   216.4014   216.8065   217.0411   217.1423   217.5379   217.5790   
      1    0      12    6.12e+01   214.9253   215.2992   215.5292   215.6529   216.0260   216.0888   
      2    0      18    5.73e-01   205.0126   205.2883   205.4509   205.6049   205.9596   206.0598   
      3    0      24    1.90e-02   204.4939   204.8377   204.9661   205.1286   205.5115   205.6009   
      4    0      30    2.33e-02   204.3955   204.7882   204.9122   205.0674   205.4780   205.5612   
      5    0      36    1.31e-01   203.9431   204.6384   204.7625   204.8074   205.4191   205.4842   
      6    0      42    5.83e-02   203.3889   204.0380   204.4327   204.4966   205.2651   205.3037   
      7    0      48    2.66e-02   203.1802   203.8459   204.3945   204.4284   205.2055   205.2449   
      8    0      54    1.69e-02   202.7902   203.7248   204.3386   204.3969   205.1388   205.2224   
      9    0      60    3.90e-02   202.3569   203.6574   204.2089   204.3878   205.0061   205.2063   
      10   0      66    1.16e-02   202.2526   203.6345   204.0628   204.3818   204.9352   205.0693   
      11   0      72    6.31e-03   202.2391   203.6300   203.9932   204.3795   204.9100   204.9733   
      12   0      78    8.33e-03   202.2301   203.6288   203.8986   204.3789   204.8145   204.9144   
      13   0      84    9.30e-03   202.2252   203.6256   203.7573   204.3767   204.6620   204.8890   
      14   0      90    1.68e-03   202.2239   203.6226   203.7109   204.3754   204.5990   204.8668   
      15   0      96    2.25e-03   202.2239   203.6201   203.6889   204.3752   204.5651   204.8526   
      16   1      102   7.02e-04   202.2239*  203.6163   203.6738   204.3741   204.5409   204.8470   
      17   1      107   8.78e-04   202.2238*  203.6149   203.6684   204.3735   204.5243   204.8433   
      18   1      112   1.57e-04   202.2238*  203.6135   203.6655   204.3733   204.5160   204.8407   
      19   1      117   1.51e-04   202.2238*  203.6131   203.6647   204.3732   204.5124   204.8398   
      20   2      120   7.02e-05   202.2238*  203.6132   203.6647   204.3731*  204.5112   204.8394   
      21   4      10    1.06e-05   202.2238*  203.6130*  203.6643*  204.3730*  204.5104   204.8392   
      22   3      12    3.85e-05   202.2238*  203.6130*  203.6643   204.3731*  204.5098   204.8393   
      23   4      15    6.65e-06   202.2238*  203.6130*  203.6643*  204.3730*  204.5095   204.8389   
      24   4      17    1.59e-05   202.2238*  203.6129*  203.6641*  204.3730*  204.5091   204.8386   
      25   2      19    7.67e-01   202.2238*  203.4276   203.6129   203.6642   204.3730*  204.5091   
      26   3      23    3.63e+00   134.7142   189.9636   202.2238*  203.6130*  203.6644   204.3730*  
      27   4      26    1.37e+00   63.8939   77.2904   202.2238*  203.6130*  203.6642*  204.3730*  
      28   4      28    1.38e-01   60.3786   64.0032   202.2238*  203.6129*  203.6642*  204.3730*  
      29   2      30    7.83e+00   39.0457   62.8088   73.1614   179.7785   202.2238*  203.6129*  
      30   1      34    5.23e+00   20.1826   44.9201   66.8908   70.8346   130.3112   202.2238*  
      31   0      39    2.93e+00   11.2576   37.3919   53.2281   65.9727   70.3963   83.8682   
      32   0      45    7.50e-01   7.9765   13.2561   43.9988   49.7255   62.7954   67.5735   
      33   0      51    1.60e+00   7.3341   9.4760   37.0423   44.8703   61.2255   63.2570   
Found complex roots...
      34   0      57    6.43e-01   6.9207   7.6652   18.9010   42.7124   44.2539   56.2238   
      35   0      63    6.22e-01   6.8626   7.4400   10.6773   20.3818   43.3656   44.0622   
Found complex roots...
      36   0      69    4.14e-01   6.6976   7.2447   7.4100   10.1888   43.5067   43.8397   
Found complex roots...
      37   0      75    7.13e-01   6.4031   7.1110   7.1982   7.6584   14.1509   32.5388   
Found complex roots...
      38   0      81    2.95e-01   6.3199   6.9267   7.0984   7.5743   11.3078   23.0360   
Found complex roots...
      39   0      87    4.08e-01   6.1520   6.8873   6.9776   7.4631   9.9813   16.4099   
Found complex roots...
      40   0      93    5.00e-02   6.0430   6.5929   6.8211   7.3026   9.1454   9.9470   
Found complex roots...
      41   0      99    2.75e-02   5.9814   6.4532   6.7415   7.2464   8.9462   9.6490   
Found complex roots...
      42   0      105   3.05e-02   5.8674   6.3535   6.6285   7.1723   8.7591   9.3478   
Found complex roots...
      43   0      111   2.46e-02   5.7470   6.2854   6.4848   7.0584   8.6391   9.1786   
Found complex roots...
      44   0      117   5.12e-02   5.6100   6.1488   6.4387   6.7800   8.3012   8.7258   
Found complex roots...
      45   0      120   2.49e-02   5.5121   6.0580   6.3919   6.7703   7.9636   8.5149   
      46   0      12    1.83e-02   5.4861   6.0081   6.3699   6.7305   7.8739   8.4246   
      47   0      18    1.07e-02   5.4396   5.9473   6.3457   6.6777   7.7509   8.3148   
      48   0      24    7.59e-03   5.4196   5.9027   6.3200   6.6482   7.7221   8.2148   
      49   0      30    2.18e-02   5.3478   5.8248   6.2945   6.5985   7.5459   8.1180   
      50   0      36    1.59e-02   5.2855   5.6945   6.2539   6.5406   7.4263   7.9039   
      51   0      42    3.23e-02   5.2383   5.6249   6.2376   6.5073   7.2883   7.7903   
      52   0      48    1.58e-02   5.1765   5.5223   6.1988   6.4502   7.0748   7.5486   
      53   0      54    1.51e-02   5.1601   5.4837   6.1821   6.4240   7.0225   7.4484   
      54   0      60    1.63e-02   5.1009   5.4208   6.1493   6.3742   6.8529   7.1727   
      55   0      66    9.95e-03   5.0844   5.3971   6.1166   6.3516   6.8033   7.1148   
      56   0      72    3.23e-02   5.0329   5.3369   6.0655   6.2807   6.6550   6.9064   
      57   0      78    1.19e-02   4.9847   5.2690   5.9774   6.2068   6.5101   6.7604   
Found complex roots...
      58   0      84    1.71e-02   4.9619   5.2396   5.9544   6.1778   6.4558   6.6720   
      59   0      90    8.51e-03   4.9210   5.2064   5.8974   6.1404   6.3480   6.5464   

 EOMEE transition 1/A1
 Total energy = -690.51107721 a.u.  Excitation energy = 4.9210 eV.
 R0^2 = 0.0000  R1^2 = 0.0000  R2_CCVV^2 = 1.0000  R2_COVV^2 = 0.0000  Res^2 = 4.40e-03
 Conv-d = no

 Amplitude    Transitions between orbitals
  0.2020       7 (A1) A      4 (A1) B    ->    18 (B1) A     16 (B1) B    
 -0.2020       7 (A1) A      4 (A1) B    ->    16 (B1) B     18 (B1) A    
 -0.2020       4 (A1) B      7 (A1) A    ->    18 (B1) A     16 (B1) B    
  0.2020       7 (A1) B      4 (A1) A    ->    18 (B1) B     16 (B1) A    
 -0.1684       7 (A1) A      4 (A1) B    ->    18 (B1) A     20 (B1) B    
  0.1684       7 (A1) A      4 (A1) B    ->    20 (B1) B     18 (B1) A    
  0.1684       4 (A1) B      7 (A1) A    ->    18 (B1) A     20 (B1) B    
 -0.1684       7 (A1) B      4 (A1) A    ->    18 (B1) B     20 (B1) A    
 -0.1530       7 (A1) A      3 (A1) B    ->    18 (B1) A     16 (B1) B    
  0.1530       7 (A1) A      3 (A1) B    ->    16 (B1) B     18 (B1) A    
  0.1530       3 (A1) B      7 (A1) A    ->    18 (B1) A     16 (B1) B    
 -0.1530       7 (A1) B      3 (A1) A    ->    18 (B1) B     16 (B1) A    
  0.1473       7 (A1) A      4 (A1) B    ->    18 (B1) A     18 (B1) B    
 -0.1473       7 (A1) A      4 (A1) B    ->    18 (B1) B     18 (B1) A    
 -0.1473       4 (A1) B      7 (A1) A    ->    18 (B1) A     18 (B1) B    
  0.1473       7 (A1) B      4 (A1) A    ->    18 (B1) B     18 (B1) A    
 -0.1429       4 (A1) A      7 (A1) B    ->    16 (B1) A     18 (B1) B    
  0.1429       4 (A1) A      7 (A1) B    ->    18 (B1) B     16 (B1) A    
  0.1429       7 (A1) B      4 (A1) A    ->    16 (B1) A     18 (B1) B    
 -0.1429       4 (A1) B      7 (A1) A    ->    16 (B1) B     18 (B1) A    
  0.1316       7 (A1) A      4 (A1) B    ->    21 (B1) A     16 (B1) B    
 -0.1316       7 (A1) A      4 (A1) B    ->    16 (B1) B     21 (B1) A    
 -0.1316       4 (A1) B      7 (A1) A    ->    21 (B1) A     16 (B1) B    
  0.1316       7 (A1) B      4 (A1) A    ->    21 (B1) B     16 (B1) A    
  0.1208       4 (A1) A      7 (A1) B    ->    20 (B1) A     18 (B1) B    
 -0.1208       4 (A1) A      7 (A1) B    ->    18 (B1) B     20 (B1) A    
 -0.1208       7 (A1) B      4 (A1) A    ->    20 (B1) A     18 (B1) B    
  0.1208       4 (A1) B      7 (A1) A    ->    20 (B1) B     18 (B1) A    
  0.1197       7 (A1) A      3 (A1) B    ->    18 (B1) A     20 (B1) B    
 -0.1197       7 (A1) A      3 (A1) B    ->    20 (B1) B     18 (B1) A    
 -0.1197       3 (A1) B      7 (A1) A    ->    18 (B1) A     20 (B1) B    
  0.1197       7 (A1) B      3 (A1) A    ->    18 (B1) B     20 (B1) A    
 -0.1147       7 (A1) A      4 (A1) B    ->    18 (B1) A     23 (B1) B    
  0.1147       7 (A1) A      4 (A1) B    ->    23 (B1) B     18 (B1) A    
  0.1147       4 (A1) B      7 (A1) A    ->    18 (B1) A     23 (B1) B    
 -0.1147       7 (A1) B      4 (A1) A    ->    18 (B1) B     23 (B1) A    
  0.1082       3 (A1) A      7 (A1) B    ->    16 (B1) A     18 (B1) B    
 -0.1082       3 (A1) A      7 (A1) B    ->    18 (B1) B     16 (B1) A    
 -0.1082       7 (A1) B      3 (A1) A    ->    16 (B1) A     18 (B1) B    
  0.1082       3 (A1) B      7 (A1) A    ->    16 (B1) B     18 (B1) A    
 -0.1050       4 (A1) A      7 (A1) B    ->    18 (B1) A     18 (B1) B    
  0.1050       4 (A1) A      7 (A1) B    ->    18 (B1) B     18 (B1) A    
  0.1050       7 (A1) B      4 (A1) A    ->    18 (B1) A     18 (B1) B    
 -0.1050       4 (A1) B      7 (A1) A    ->    18 (B1) B     18 (B1) A    

              Summary of significant orbitals:

               Number  Type             Irrep      Energy
               3       Occ  Alpha       3 (A1)    -11.2547
               5       Occ  Alpha       4 (A1)    -11.2534
               9       Occ  Alpha       7 (A1)     -8.0337
               3       Occ  Beta        3 (A1)    -11.2547
               5       Occ  Beta        4 (A1)    -11.2534
               9       Occ  Beta        7 (A1)     -8.0337
               53      Vir  Alpha      16 (B1)      0.0957
               61      Vir  Alpha      18 (B1)      0.1724
               70      Vir  Alpha      20 (B1)      0.2221
               73      Vir  Alpha      21 (B1)      0.2350
               78      Vir  Alpha      23 (B1)      0.2518
               53      Vir  Beta       16 (B1)      0.0957
               61      Vir  Beta       18 (B1)      0.1724
               70      Vir  Beta       20 (B1)      0.2221
               73      Vir  Beta       21 (B1)      0.2350
               78      Vir  Beta       23 (B1)      0.2518


 EOMEE transition 2/A1
 Total energy = -690.50058766 a.u.  Excitation energy = 5.2064 eV.
 R0^2 = 0.0000  R1^2 = 0.0000  R2_CCVV^2 = 1.0000  R2_COVV^2 = 0.0000  Res^2 = 3.38e-03
 Conv-d = no

 Amplitude    Transitions between orbitals
 -0.1959       3 (B1) A      2 (B1) B    ->    18 (B1) A     16 (B1) B    
  0.1959       3 (B1) A      2 (B1) B    ->    16 (B1) B     18 (B1) A    
  0.1959       2 (B1) B      3 (B1) A    ->    18 (B1) A     16 (B1) B    
 -0.1959       3 (B1) B      2 (B1) A    ->    18 (B1) B     16 (B1) A    
 -0.1686       3 (B1) A      2 (B1) B    ->    18 (B1) A     18 (B1) B    
  0.1686       3 (B1) A      2 (B1) B    ->    18 (B1) B     18 (B1) A    
  0.1686       2 (B1) B      3 (B1) A    ->    18 (B1) A     18 (B1) B    
 -0.1686       3 (B1) B      2 (B1) A    ->    18 (B1) B     18 (B1) A    
  0.1683       3 (B1) A      2 (B1) B    ->    18 (B1) A     20 (B1) B    
 -0.1683       3 (B1) A      2 (B1) B    ->    20 (B1) B     18 (B1) A    
 -0.1683       2 (B1) B      3 (B1) A    ->    18 (B1) A     20 (B1) B    
  0.1683       3 (B1) B      2 (B1) A    ->    18 (B1) B     20 (B1) A    
 -0.1508       3 (B1) A      2 (B1) B    ->    26 (B1) A     26 (B1) B    
  0.1508       3 (B1) A      2 (B1) B    ->    26 (B1) B     26 (B1) A    
  0.1508       2 (B1) B      3 (B1) A    ->    26 (B1) A     26 (B1) B    
 -0.1508       3 (B1) B      2 (B1) A    ->    26 (B1) B     26 (B1) A    
  0.1411       3 (B1) A      2 (B1) B    ->    18 (B1) A     23 (B1) B    
 -0.1411       3 (B1) A      2 (B1) B    ->    23 (B1) B     18 (B1) A    
 -0.1411       2 (B1) B      3 (B1) A    ->    18 (B1) A     23 (B1) B    
  0.1411       3 (B1) B      2 (B1) A    ->    18 (B1) B     23 (B1) A    
  0.1385       2 (B1) A      3 (B1) B    ->    16 (B1) A     18 (B1) B    
 -0.1385       2 (B1) A      3 (B1) B    ->    18 (B1) B     16 (B1) A    
 -0.1385       3 (B1) B      2 (B1) A    ->    16 (B1) A     18 (B1) B    
  0.1385       2 (B1) B      3 (B1) A    ->    16 (B1) B     18 (B1) A    
 -0.1223       3 (B1) A      2 (B1) B    ->    17 (B1) A     23 (B1) B    
  0.1223       3 (B1) A      2 (B1) B    ->    23 (B1) B     17 (B1) A    
  0.1223       2 (B1) B      3 (B1) A    ->    17 (B1) A     23 (B1) B    
 -0.1223       3 (B1) B      2 (B1) A    ->    17 (B1) B     23 (B1) A    
 -0.1207       2 (B1) A      3 (B1) B    ->    20 (B1) A     18 (B1) B    
  0.1207       2 (B1) A      3 (B1) B    ->    18 (B1) B     20 (B1) A    
  0.1207       3 (B1) B      2 (B1) A    ->    20 (B1) A     18 (B1) B    
 -0.1207       2 (B1) B      3 (B1) A    ->    20 (B1) B     18 (B1) A    
  0.1201       2 (B1) A      3 (B1) B    ->    18 (B1) A     18 (B1) B    
 -0.1201       2 (B1) A      3 (B1) B    ->    18 (B1) B     18 (B1) A    
 -0.1201       3 (B1) B      2 (B1) A    ->    18 (B1) A     18 (B1) B    
  0.1201       2 (B1) B      3 (B1) A    ->    18 (B1) B     18 (B1) A    
 -0.1182       3 (B1) A      2 (B1) B    ->    21 (B1) A     16 (B1) B    
  0.1182       3 (B1) A      2 (B1) B    ->    16 (B1) B     21 (B1) A    
  0.1182       2 (B1) B      3 (B1) A    ->    21 (B1) A     16 (B1) B    
 -0.1182       3 (B1) B      2 (B1) A    ->    21 (B1) B     16 (B1) A    
  0.1082       2 (B1) A      3 (B1) B    ->    26 (B1) A     26 (B1) B    
 -0.1082       2 (B1) A      3 (B1) B    ->    26 (B1) B     26 (B1) A    
 -0.1082       3 (B1) B      2 (B1) A    ->    26 (B1) A     26 (B1) B    
  0.1082       2 (B1) B      3 (B1) A    ->    26 (B1) B     26 (B1) A    
  0.1069       3 (B1) A      1 (B1) B    ->    18 (B1) A     16 (B1) B    
 -0.1069       3 (B1) A      1 (B1) B    ->    16 (B1) B     18 (B1) A    
 -0.1069       1 (B1) B      3 (B1) A    ->    18 (B1) A     16 (B1) B    
  0.1069       3 (B1) B      1 (B1) A    ->    18 (B1) B     16 (B1) A    
 -0.1013       2 (B1) A      3 (B1) B    ->    23 (B1) A     18 (B1) B    
  0.1013       2 (B1) A      3 (B1) B    ->    18 (B1) B     23 (B1) A    
  0.1013       3 (B1) B      2 (B1) A    ->    23 (B1) A     18 (B1) B    
 -0.1013       2 (B1) B      3 (B1) A    ->    23 (B1) B     18 (B1) A    

              Summary of significant orbitals:

               Number  Type             Irrep      Energy
               4       Occ  Alpha       1 (B1)    -11.2547
               6       Occ  Alpha       2 (B1)    -11.2533
               10      Occ  Alpha       3 (B1)     -8.0312
               4       Occ  Beta        1 (B1)    -11.2547
               6       Occ  Beta        2 (B1)    -11.2533
               10      Occ  Beta        3 (B1)     -8.0312
               53      Vir  Alpha      16 (B1)      0.0957
               57      Vir  Alpha      17 (B1)      0.1061
               61      Vir  Alpha      18 (B1)      0.1724
               70      Vir  Alpha      20 (B1)      0.2221
               73      Vir  Alpha      21 (B1)      0.2350
               78      Vir  Alpha      23 (B1)      0.2518
               85      Vir  Alpha      26 (B1)      0.3297
               53      Vir  Beta       16 (B1)      0.0957
               57      Vir  Beta       17 (B1)      0.1061
               61      Vir  Beta       18 (B1)      0.1724
               70      Vir  Beta       20 (B1)      0.2221
               73      Vir  Beta       21 (B1)      0.2350
               78      Vir  Beta       23 (B1)      0.2518
               85      Vir  Beta       26 (B1)      0.3297


 EOMEE transition 3/A1
 Total energy = -690.47519472 a.u.  Excitation energy = 5.8974 eV.
 R0^2 = 0.0000  R1^2 = 0.0000  R2_CCVV^2 = 1.0000  R2_COVV^2 = 0.0000  Res^2 = 1.14e-02
 Conv-d = no

 Amplitude    Transitions between orbitals
  0.2374       7 (A1) A      4 (A1) B    ->    26 (B1) A     26 (B1) B    
 -0.2374       7 (A1) A      4 (A1) B    ->    26 (B1) B     26 (B1) A    
 -0.2374       4 (A1) B      7 (A1) A    ->    26 (B1) A     26 (B1) B    
  0.2374       7 (A1) B      4 (A1) A    ->    26 (B1) B     26 (B1) A    
 -0.1702       4 (A1) A      7 (A1) B    ->    26 (B1) A     26 (B1) B    
  0.1702       4 (A1) A      7 (A1) B    ->    26 (B1) B     26 (B1) A    
  0.1702       7 (A1) B      4 (A1) A    ->    26 (B1) A     26 (B1) B    
 -0.1702       4 (A1) B      7 (A1) A    ->    26 (B1) B     26 (B1) A    
 -0.1549       7 (A1) A      3 (A1) B    ->    26 (B1) A     26 (B1) B    
  0.1549       7 (A1) A      3 (A1) B    ->    26 (B1) B     26 (B1) A    
  0.1549       3 (A1) B      7 (A1) A    ->    26 (B1) A     26 (B1) B    
 -0.1549       7 (A1) B      3 (A1) A    ->    26 (B1) B     26 (B1) A    
 -0.1509       7 (A1) A      4 (A1) B    ->    26 (B1) A     25 (B1) B    
  0.1509       7 (A1) A      4 (A1) B    ->    25 (B1) B     26 (B1) A    
  0.1509       4 (A1) B      7 (A1) A    ->    26 (B1) A     25 (B1) B    
 -0.1509       7 (A1) B      4 (A1) A    ->    26 (B1) B     25 (B1) A    
 -0.1462       7 (A1) A      4 (A1) B    ->    30 (B1) A     26 (B1) B    
  0.1462       7 (A1) A      4 (A1) B    ->    26 (B1) B     30 (B1) A    
  0.1462       4 (A1) B      7 (A1) A    ->    30 (B1) A     26 (B1) B    
 -0.1462       7 (A1) B      4 (A1) A    ->    30 (B1) B     26 (B1) A    
  0.1378       7 (A1) A      4 (A1) B    ->    26 (B1) A     27 (B1) B    
 -0.1378       7 (A1) A      4 (A1) B    ->    27 (B1) B     26 (B1) A    
 -0.1378       4 (A1) B      7 (A1) A    ->    26 (B1) A     27 (B1) B    
  0.1378       7 (A1) B      4 (A1) A    ->    26 (B1) B     27 (B1) A    
 -0.1376       7 (A1) A      4 (A1) B    ->    29 (B1) A     26 (B1) B    
  0.1376       7 (A1) A      4 (A1) B    ->    26 (B1) B     29 (B1) A    
  0.1376       4 (A1) B      7 (A1) A    ->    29 (B1) A     26 (B1) B    
 -0.1376       7 (A1) B      4 (A1) A    ->    29 (B1) B     26 (B1) A    
  0.1293       7 (A1) A      5 (A1) B    ->    26 (B1) A     26 (B1) B    
 -0.1293       7 (A1) A      5 (A1) B    ->    26 (B1) B     26 (B1) A    
 -0.1293       5 (A1) B      7 (A1) A    ->    26 (B1) A     26 (B1) B    
  0.1293       7 (A1) B      5 (A1) A    ->    26 (B1) B     26 (B1) A    
 -0.1260       7 (A1) A      4 (A1) B    ->    24 (B1) A     26 (B1) B    
  0.1260       7 (A1) A      4 (A1) B    ->    26 (B1) B     24 (B1) A    
  0.1260       4 (A1) B      7 (A1) A    ->    24 (B1) A     26 (B1) B    
 -0.1260       7 (A1) B      4 (A1) A    ->    24 (B1) B     26 (B1) A    
  0.1136       7 (A1) A      3 (A1) B    ->    29 (B1) A     26 (B1) B    
 -0.1136       7 (A1) A      3 (A1) B    ->    26 (B1) B     29 (B1) A    
 -0.1136       3 (A1) B      7 (A1) A    ->    29 (B1) A     26 (B1) B    
  0.1136       7 (A1) B      3 (A1) A    ->    29 (B1) B     26 (B1) A    
  0.1111       3 (A1) A      7 (A1) B    ->    26 (B1) A     26 (B1) B    
 -0.1111       3 (A1) A      7 (A1) B    ->    26 (B1) B     26 (B1) A    
 -0.1111       7 (A1) B      3 (A1) A    ->    26 (B1) A     26 (B1) B    
  0.1111       3 (A1) B      7 (A1) A    ->    26 (B1) B     26 (B1) A    
  0.1077       4 (A1) A      7 (A1) B    ->    25 (B1) A     26 (B1) B    
 -0.1077       4 (A1) A      7 (A1) B    ->    26 (B1) B     25 (B1) A    
 -0.1077       7 (A1) B      4 (A1) A    ->    25 (B1) A     26 (B1) B    
  0.1077       4 (A1) B      7 (A1) A    ->    25 (B1) B     26 (B1) A    
  0.1066       7 (A1) A      3 (A1) B    ->    26 (B1) A     25 (B1) B    
 -0.1066       7 (A1) A      3 (A1) B    ->    25 (B1) B     26 (B1) A    
 -0.1066       3 (A1) B      7 (A1) A    ->    26 (B1) A     25 (B1) B    
  0.1066       7 (A1) B      3 (A1) A    ->    26 (B1) B     25 (B1) A    
 -0.1043       7 (A1) A      4 (A1) B    ->    28 (B1) A     26 (B1) B    
  0.1043       7 (A1) A      4 (A1) B    ->    26 (B1) B     28 (B1) A    
  0.1043       4 (A1) B      7 (A1) A    ->    28 (B1) A     26 (B1) B    
 -0.1043       7 (A1) B      4 (A1) A    ->    28 (B1) B     26 (B1) A    
  0.1022       4 (A1) A      7 (A1) B    ->    26 (B1) A     30 (B1) B    
 -0.1022       4 (A1) A      7 (A1) B    ->    30 (B1) B     26 (B1) A    
 -0.1022       7 (A1) B      4 (A1) A    ->    26 (B1) A     30 (B1) B    
  0.1022       4 (A1) B      7 (A1) A    ->    26 (B1) B     30 (B1) A    
  0.1014       7 (A1) A      4 (A1) B    ->    35 (B1) A     26 (B1) B    
 -0.1014       7 (A1) A      4 (A1) B    ->    26 (B1) B     35 (B1) A    
 -0.1014       4 (A1) B      7 (A1) A    ->    35 (B1) A     26 (B1) B    
  0.1014       7 (A1) B      4 (A1) A    ->    35 (B1) B     26 (B1) A    

              Summary of significant orbitals:

               Number  Type             Irrep      Energy
               3       Occ  Alpha       3 (A1)    -11.2547
               5       Occ  Alpha       4 (A1)    -11.2534
               7       Occ  Alpha       5 (A1)    -11.2494
               9       Occ  Alpha       7 (A1)     -8.0337
               3       Occ  Beta        3 (A1)    -11.2547
               5       Occ  Beta        4 (A1)    -11.2534
               7       Occ  Beta        5 (A1)    -11.2494
               9       Occ  Beta        7 (A1)     -8.0337
               81      Vir  Alpha      24 (B1)      0.2908
               82      Vir  Alpha      25 (B1)      0.2951
               85      Vir  Alpha      26 (B1)      0.3297
               90      Vir  Alpha      27 (B1)      0.4177
               92      Vir  Alpha      28 (B1)      0.4407
               94      Vir  Alpha      29 (B1)      0.4998
               96      Vir  Alpha      30 (B1)      0.5087
               109     Vir  Alpha      35 (B1)      0.7929
               81      Vir  Beta       24 (B1)      0.2908
               82      Vir  Beta       25 (B1)      0.2951
               85      Vir  Beta       26 (B1)      0.3297
               90      Vir  Beta       27 (B1)      0.4177
               92      Vir  Beta       28 (B1)      0.4407
               94      Vir  Beta       29 (B1)      0.4998
               96      Vir  Beta       30 (B1)      0.5087
               109     Vir  Beta       35 (B1)      0.7929


 EOMEE transition 4/A1
 Total energy = -690.46626197 a.u.  Excitation energy = 6.1404 eV.
 R0^2 = 0.0000  R1^2 = 0.0000  R2_CCVV^2 = 1.0000  R2_COVV^2 = 0.0000  Res^2 = 7.99e-03
 Conv-d = no

 Amplitude    Transitions between orbitals
 -0.2513       3 (B1) A      2 (B1) B    ->    26 (B1) A     26 (B1) B    
  0.2513       3 (B1) A      2 (B1) B    ->    26 (B1) B     26 (B1) A    
  0.2513       2 (B1) B      3 (B1) A    ->    26 (B1) A     26 (B1) B    
 -0.2513       3 (B1) B      2 (B1) A    ->    26 (B1) B     26 (B1) A    
 -0.1931       3 (B1) A      2 (B1) B    ->    26 (B1) A     27 (B1) B    
  0.1931       3 (B1) A      2 (B1) B    ->    27 (B1) B     26 (B1) A    
  0.1931       2 (B1) B      3 (B1) A    ->    26 (B1) A     27 (B1) B    
 -0.1931       3 (B1) B      2 (B1) A    ->    26 (B1) B     27 (B1) A    
  0.1816       3 (B1) A      2 (B1) B    ->    26 (B1) A     33 (B1) B    
 -0.1816       3 (B1) A      2 (B1) B    ->    33 (B1) B     26 (B1) A    
 -0.1816       2 (B1) B      3 (B1) A    ->    26 (B1) A     33 (B1) B    
  0.1816       3 (B1) B      2 (B1) A    ->    26 (B1) B     33 (B1) A    
  0.1802       2 (B1) A      3 (B1) B    ->    26 (B1) A     26 (B1) B    
 -0.1802       2 (B1) A      3 (B1) B    ->    26 (B1) B     26 (B1) A    
 -0.1802       3 (B1) B      2 (B1) A    ->    26 (B1) A     26 (B1) B    
  0.1802       2 (B1) B      3 (B1) A    ->    26 (B1) B     26 (B1) A    
 -0.1477       3 (B1) A      2 (B1) B    ->    26 (B1) A     36 (B1) B    
  0.1477       3 (B1) A      2 (B1) B    ->    36 (B1) B     26 (B1) A    
  0.1477       2 (B1) B      3 (B1) A    ->    26 (B1) A     36 (B1) B    
 -0.1477       3 (B1) B      2 (B1) A    ->    26 (B1) B     36 (B1) A    
  0.1393       2 (B1) A      3 (B1) B    ->    27 (B1) A     26 (B1) B    
 -0.1393       2 (B1) A      3 (B1) B    ->    26 (B1) B     27 (B1) A    
 -0.1393       3 (B1) B      2 (B1) A    ->    27 (B1) A     26 (B1) B    
  0.1393       2 (B1) B      3 (B1) A    ->    27 (B1) B     26 (B1) A    
  0.1369       3 (B1) A      2 (B1) B    ->    26 (B1) A     29 (B1) B    
 -0.1369       3 (B1) A      2 (B1) B    ->    29 (B1) B     26 (B1) A    
 -0.1369       2 (B1) B      3 (B1) A    ->    26 (B1) A     29 (B1) B    
  0.1369       3 (B1) B      2 (B1) A    ->    26 (B1) B     29 (B1) A    
  0.1364       3 (B1) A      2 (B1) B    ->    26 (B1) A     31 (B1) B    
 -0.1364       3 (B1) A      2 (B1) B    ->    31 (B1) B     26 (B1) A    
 -0.1364       2 (B1) B      3 (B1) A    ->    26 (B1) A     31 (B1) B    
  0.1364       3 (B1) B      2 (B1) A    ->    26 (B1) B     31 (B1) A    
 -0.1358       2 (B1) A      3 (B1) B    ->    33 (B1) A     26 (B1) B    
  0.1358       2 (B1) A      3 (B1) B    ->    26 (B1) B     33 (B1) A    
  0.1358       3 (B1) B      2 (B1) A    ->    33 (B1) A     26 (B1) B    
 -0.1358       2 (B1) B      3 (B1) A    ->    33 (B1) B     26 (B1) A    
 -0.1207       3 (B1) A      1 (B1) B    ->    26 (B1) A     33 (B1) B    
  0.1207       3 (B1) A      1 (B1) B    ->    33 (B1) B     26 (B1) A    
  0.1207       1 (B1) B      3 (B1) A    ->    26 (B1) A     33 (B1) B    
 -0.1207       3 (B1) B      1 (B1) A    ->    26 (B1) B     33 (B1) A    
  0.1179       3 (B1) A      1 (B1) B    ->    26 (B1) A     27 (B1) B    
 -0.1179       3 (B1) A      1 (B1) B    ->    27 (B1) B     26 (B1) A    
 -0.1179       1 (B1) B      3 (B1) A    ->    26 (B1) A     27 (B1) B    
  0.1179       3 (B1) B      1 (B1) A    ->    26 (B1) B     27 (B1) A    
  0.1137       2 (B1) A      3 (B1) B    ->    36 (B1) A     26 (B1) B    
 -0.1137       2 (B1) A      3 (B1) B    ->    26 (B1) B     36 (B1) A    
 -0.1137       3 (B1) B      2 (B1) A    ->    36 (B1) A     26 (B1) B    
  0.1137       2 (B1) B      3 (B1) A    ->    36 (B1) B     26 (B1) A    
  0.1074       3 (B1) A      1 (B1) B    ->    26 (B1) A     26 (B1) B    
 -0.1074       3 (B1) A      1 (B1) B    ->    26 (B1) B     26 (B1) A    
 -0.1074       1 (B1) B      3 (B1) A    ->    26 (B1) A     26 (B1) B    
  0.1074       3 (B1) B      1 (B1) A    ->    26 (B1) B     26 (B1) A    
 -0.1019       2 (B1) A      3 (B1) B    ->    31 (B1) A     26 (B1) B    
  0.1019       2 (B1) A      3 (B1) B    ->    26 (B1) B     31 (B1) A    
  0.1019       3 (B1) B      2 (B1) A    ->    31 (B1) A     26 (B1) B    
 -0.1019       2 (B1) B      3 (B1) A    ->    31 (B1) B     26 (B1) A    
  0.1003       3 (B1) A      2 (B1) B    ->    26 (B1) A     25 (B1) B    
 -0.1003       3 (B1) A      2 (B1) B    ->    25 (B1) B     26 (B1) A    
 -0.1003       2 (B1) B      3 (B1) A    ->    26 (B1) A     25 (B1) B    
  0.1003       3 (B1) B      2 (B1) A    ->    26 (B1) B     25 (B1) A    

              Summary of significant orbitals:

               Number  Type             Irrep      Energy
               4       Occ  Alpha       1 (B1)    -11.2547
               6       Occ  Alpha       2 (B1)    -11.2533
               10      Occ  Alpha       3 (B1)     -8.0312
               4       Occ  Beta        1 (B1)    -11.2547
               6       Occ  Beta        2 (B1)    -11.2533
               10      Occ  Beta        3 (B1)     -8.0312
               82      Vir  Alpha      25 (B1)      0.2951
               85      Vir  Alpha      26 (B1)      0.3297
               90      Vir  Alpha      27 (B1)      0.4177
               94      Vir  Alpha      29 (B1)      0.4998
               98      Vir  Alpha      31 (B1)      0.6296
               103     Vir  Alpha      33 (B1)      0.7305
               117     Vir  Alpha      36 (B1)      0.9357
               82      Vir  Beta       25 (B1)      0.2951
               85      Vir  Beta       26 (B1)      0.3297
               90      Vir  Beta       27 (B1)      0.4177
               94      Vir  Beta       29 (B1)      0.4998
               98      Vir  Beta       31 (B1)      0.6296
               103     Vir  Beta       33 (B1)      0.7305
               117     Vir  Beta       36 (B1)      0.9357


 EOMEE transition 5/A1
 Total energy = -690.45863628 a.u.  Excitation energy = 6.3480 eV.
 R0^2 = 0.0000  R1^2 = 0.0000  R2_CCVV^2 = 1.0000  R2_COVV^2 = 0.0000  Res^2 = 9.31e-03
 Conv-d = no

 Amplitude    Transitions between orbitals
  0.3217       7 (A1) A      4 (A1) B    ->    26 (B1) A     26 (B1) B    
 -0.3217       7 (A1) A      4 (A1) B    ->    26 (B1) B     26 (B1) A    
 -0.3217       4 (A1) B      7 (A1) A    ->    26 (B1) A     26 (B1) B    
  0.3217       7 (A1) B      4 (A1) A    ->    26 (B1) B     26 (B1) A    
 -0.2307       4 (A1) A      7 (A1) B    ->    26 (B1) A     26 (B1) B    
  0.2307       4 (A1) A      7 (A1) B    ->    26 (B1) B     26 (B1) A    
  0.2307       7 (A1) B      4 (A1) A    ->    26 (B1) A     26 (B1) B    
 -0.2307       4 (A1) B      7 (A1) A    ->    26 (B1) B     26 (B1) A    
 -0.1522       7 (A1) A      4 (A1) B    ->    26 (B1) A     25 (B1) B    
  0.1522       7 (A1) A      4 (A1) B    ->    25 (B1) B     26 (B1) A    
  0.1522       4 (A1) B      7 (A1) A    ->    26 (B1) A     25 (B1) B    
 -0.1522       7 (A1) B      4 (A1) A    ->    26 (B1) B     25 (B1) A    
 -0.1135       7 (A1) A      3 (A1) B    ->    26 (B1) A     24 (B1) B    
  0.1135       7 (A1) A      3 (A1) B    ->    24 (B1) B     26 (B1) A    
  0.1135       3 (A1) B      7 (A1) A    ->    26 (B1) A     24 (B1) B    
 -0.1135       7 (A1) B      3 (A1) A    ->    26 (B1) B     24 (B1) A    
  0.1083       4 (A1) A      7 (A1) B    ->    25 (B1) A     26 (B1) B    
 -0.1083       4 (A1) A      7 (A1) B    ->    26 (B1) B     25 (B1) A    
 -0.1083       7 (A1) B      4 (A1) A    ->    25 (B1) A     26 (B1) B    
  0.1083       4 (A1) B      7 (A1) A    ->    25 (B1) B     26 (B1) A    
 -0.1067       7 (A1) A      4 (A1) B    ->    18 (B1) A     23 (B1) B    
  0.1067       7 (A1) A      4 (A1) B    ->    23 (B1) B     18 (B1) A    
  0.1067       4 (A1) B      7 (A1) A    ->    18 (B1) A     23 (B1) B    
 -0.1067       7 (A1) B      4 (A1) A    ->    18 (B1) B     23 (B1) A    

              Summary of significant orbitals:

               Number  Type             Irrep      Energy
               3       Occ  Alpha       3 (A1)    -11.2547
               5       Occ  Alpha       4 (A1)    -11.2534
               9       Occ  Alpha       7 (A1)     -8.0337
               3       Occ  Beta        3 (A1)    -11.2547
               5       Occ  Beta        4 (A1)    -11.2534
               9       Occ  Beta        7 (A1)     -8.0337
               61      Vir  Alpha      18 (B1)      0.1724
               78      Vir  Alpha      23 (B1)      0.2518
               81      Vir  Alpha      24 (B1)      0.2908
               82      Vir  Alpha      25 (B1)      0.2951
               85      Vir  Alpha      26 (B1)      0.3297
               61      Vir  Beta       18 (B1)      0.1724
               78      Vir  Beta       23 (B1)      0.2518
               81      Vir  Beta       24 (B1)      0.2908
               82      Vir  Beta       25 (B1)      0.2951
               85      Vir  Beta       26 (B1)      0.3297


 EOMEE transition 6/A1
 Total energy = -690.45134445 a.u.  Excitation energy = 6.5464 eV.
 R0^2 = 0.0000  R1^2 = 0.0000  R2_CCVV^2 = 0.9999  R2_COVV^2 = 0.0000  Res^2 = 1.45e-02
 Conv-d = no

 Amplitude    Transitions between orbitals
  0.1665       3 (B1) A      2 (B1) B    ->    26 (B1) A     26 (B1) B    
 -0.1665       3 (B1) A      2 (B1) B    ->    26 (B1) B     26 (B1) A    
 -0.1665       2 (B1) B      3 (B1) A    ->    26 (B1) A     26 (B1) B    
  0.1665       3 (B1) B      2 (B1) A    ->    26 (B1) B     26 (B1) A    
 -0.1543       3 (B1) A      1 (B1) B    ->    26 (B1) A     24 (B1) B    
  0.1543       3 (B1) A      1 (B1) B    ->    24 (B1) B     26 (B1) A    
  0.1543       1 (B1) B      3 (B1) A    ->    26 (B1) A     24 (B1) B    
 -0.1543       3 (B1) B      1 (B1) A    ->    26 (B1) B     24 (B1) A    
  0.1438       3 (B1) A      1 (B1) B    ->    26 (B1) A     26 (B1) B    
 -0.1438       3 (B1) A      1 (B1) B    ->    26 (B1) B     26 (B1) A    
 -0.1438       1 (B1) B      3 (B1) A    ->    26 (B1) A     26 (B1) B    
  0.1438       3 (B1) B      1 (B1) A    ->    26 (B1) B     26 (B1) A    
 -0.1279       3 (B1) A      1 (B1) B    ->    26 (B1) A     25 (B1) B    
  0.1279       3 (B1) A      1 (B1) B    ->    25 (B1) B     26 (B1) A    
  0.1279       1 (B1) B      3 (B1) A    ->    26 (B1) A     25 (B1) B    
 -0.1279       3 (B1) B      1 (B1) A    ->    26 (B1) B     25 (B1) A    
 -0.1193       2 (B1) A      3 (B1) B    ->    26 (B1) A     26 (B1) B    
  0.1193       2 (B1) A      3 (B1) B    ->    26 (B1) B     26 (B1) A    
  0.1193       3 (B1) B      2 (B1) A    ->    26 (B1) A     26 (B1) B    
 -0.1193       2 (B1) B      3 (B1) A    ->    26 (B1) B     26 (B1) A    
  0.1129       3 (B1) A      1 (B1) B    ->    18 (B1) A     18 (B1) B    
 -0.1129       3 (B1) A      1 (B1) B    ->    18 (B1) B     18 (B1) A    
 -0.1129       1 (B1) B      3 (B1) A    ->    18 (B1) A     18 (B1) B    
  0.1129       3 (B1) B      1 (B1) A    ->    18 (B1) B     18 (B1) A    
  0.1096       1 (B1) A      3 (B1) B    ->    24 (B1) A     26 (B1) B    
 -0.1096       1 (B1) A      3 (B1) B    ->    26 (B1) B     24 (B1) A    
 -0.1096       3 (B1) B      1 (B1) A    ->    24 (B1) A     26 (B1) B    
  0.1096       1 (B1) B      3 (B1) A    ->    24 (B1) B     26 (B1) A    
 -0.1026       1 (B1) A      3 (B1) B    ->    26 (B1) A     26 (B1) B    
  0.1026       1 (B1) A      3 (B1) B    ->    26 (B1) B     26 (B1) A    
  0.1026       3 (B1) B      1 (B1) A    ->    26 (B1) A     26 (B1) B    
 -0.1026       1 (B1) B      3 (B1) A    ->    26 (B1) B     26 (B1) A    

              Summary of significant orbitals:

               Number  Type             Irrep      Energy
               4       Occ  Alpha       1 (B1)    -11.2547
               6       Occ  Alpha       2 (B1)    -11.2533
               10      Occ  Alpha       3 (B1)     -8.0312
               4       Occ  Beta        1 (B1)    -11.2547
               6       Occ  Beta        2 (B1)    -11.2533
               10      Occ  Beta        3 (B1)     -8.0312
               61      Vir  Alpha      18 (B1)      0.1724
               81      Vir  Alpha      24 (B1)      0.2908
               82      Vir  Alpha      25 (B1)      0.2951
               85      Vir  Alpha      26 (B1)      0.3297
               61      Vir  Beta       18 (B1)      0.1724
               81      Vir  Beta       24 (B1)      0.2908
               82      Vir  Beta       25 (B1)      0.2951
               85      Vir  Beta       26 (B1)      0.3297


      CVS-EOM-CCSD/MP2 left amplitudes will be solved using Davidson.
        Amplitudes will be solved using MOM  algorithm.
     Hard-coded thresholds: 
     LinDepThresh=1.00e-15  NormThresh=1.00e-06  ReorthogonThresh=1.00e-02

      Roots     MaxVec    MaxIter   Precond   Conv      Shift    
      6         120       60        1         1.00e-05  0.00e+00  
 ------------------------------------------------------------------------------
      Iter ConvRoots NVecs ResNorm Current eigenvalues (eV)
 ------------------------------------------------------------------------------
      0    0      6     2.49e-02   5.5120   6.0580   6.3921   6.7706   7.9635   8.5149   
Found complex roots...
      1    0      12    9.55e+00   5.5105   6.0552   6.3846   6.7616   7.9409   8.4908   
      2    0      18    4.72e-01   5.4796   5.9946   6.3646   6.7096   7.8292   8.3719   
      3    0      24    5.71e-02   5.4399   5.9417   6.3401   6.6654   7.7454   8.3087   
      4    0      30    8.69e-02   5.4182   5.9001   6.3121   6.6361   7.7015   8.2132   
      5    0      36    1.18e-01   5.3451   5.8304   6.2929   6.5892   7.5213   8.1210   
      6    0      42    3.05e-01   5.2804   5.6974   6.2496   6.5365   7.3975   7.8824   
      7    0      48    2.94e-01   5.2245   5.6047   6.2273   6.4977   7.2085   12.1131   
      8    0      54    2.47e-01   5.1736   5.5329   6.1903   6.4409   10.0734   7.0700   
      9    0      60    2.42e-01   5.1497   5.4745   6.1693   6.4089   9.8871   6.9794   
      10   0      66    3.96e-01   5.0956   5.4133   6.1403   6.3553   9.7264   9.2101   
      11   0      72    8.79e-02   5.0764   5.3915   6.0977   6.3314   9.4410   6.7681   
      12   0      78    3.75e-01   5.0281   5.3287   6.0631   6.2591   8.9746   6.6045   
      13   0      84    3.24e-01   4.9783   5.2834   5.9678   7.3254   6.1966   7.9447   
      14   0      90    1.67e-01   4.9531   5.2422   6.9772   5.9370   7.2792   6.1709   
      15   0      96    1.49e-01   4.9211   6.3471   5.2154   6.8978   7.0602   5.8838   
      16   0      102   5.47e-02   4.9060   6.3164   5.1996   6.9785   5.8433   7.0659   
      17   0      108   2.53e-01   4.8678   6.2128   5.1676   6.9125   5.8018   6.9975   
      18   0      114   1.39e-01   4.8487   6.1632   5.1535   6.8462   5.7429   6.6503   
Found complex roots...
      19   0      120   1.96e-01   4.8239   6.0766   5.1322   6.7844   5.7187   6.8847   
      20   0      12    6.27e-02   4.8104   6.0352   5.1245   6.7606   5.7027   6.8664   
      21   0      18    4.81e-02   4.7975   6.0004   5.1164   6.7187   5.6776   6.8276   
      22   0      24    7.93e-02   4.7810   5.9637   5.1078   6.6893   5.6598   6.7945   
      23   0      30    3.93e-01   4.7630   5.9238   5.0963   6.6443   5.6389   6.7663   
      24   0      36    1.96e-02   4.7420   5.8918   5.0876   6.6011   5.5954   6.7088   
      25   0      42    3.48e-01   4.7195   5.8470   5.0757   6.5465   5.5647   6.6761   
      26   0      48    6.74e-01   4.6781   5.7831   5.0544   6.4148   5.5083   6.5938   
Found complex roots...
      27   0      54    1.66e-01   4.6292   5.7239   5.0380   6.3611   5.4140   6.4852   
      28   0      60    7.73e-02   4.5657   5.6555   5.0223   6.2940   7.3005   5.3373   
      29   0      66    5.39e-01   4.4843   5.5919   5.0044   8.6257   6.1998   7.3775   
      30   0      72    1.80e+00   4.3243   5.1109   8.1211   5.5424   4.9757   6.8464   
      31   0      78    3.79e-01   4.0988   5.0315   7.4494   6.1666   4.9426   7.7376   
      32   0      84    5.07e-01   4.8583   7.1228   6.0095   4.9528   7.5359   5.7868   
      33   0      90    4.34e-01   4.7994   6.9229   5.8866   4.9016   5.6277   7.3376   
      34   0      96    2.64e-01   4.7580   6.7238   5.7812   4.8488   5.4929   7.2215   
      35   0      102   6.76e-02   4.6948   4.7896   6.5971   5.3657   7.1293   6.2209   
      36   0      108   1.97e-01   4.7358   6.5020   4.5207   5.1759   5.2542   7.0186   
Found complex roots...
      37   0      114   3.22e-01   4.7004   6.4267   4.3077   5.1180   5.2024   6.9611   
      38   0      120   6.13e-02   4.6627   5.7341   5.5718   5.0687   5.1630   6.8860   
      39   0      12    5.15e-02   4.6452   5.6986   5.5491   5.0467   5.1440   6.8425   
      40   0      18    1.15e-02   4.6288   5.6696   5.5036   5.0232   5.1220   6.7929   
      41   0      24    1.03e-01   4.6086   5.6306   5.4575   4.9838   5.0888   6.7210   
      42   0      30    1.15e-01   4.5889   5.5845   5.4169   4.9209   5.0531   6.6185   
      43   0      36    6.17e-02   4.5571   5.5473   5.3536   4.8012   5.0131   6.4543   
      44   0      42    4.63e-01   4.5979   5.4900   5.2909   4.3765   4.9608   8.5115   
      45   0      48    5.60e-01   4.5188   5.4017   5.2402   3.4559   5.6391   4.8914   
      46   0      54    4.28e-01   4.4522   5.4911   5.3186   5.1812   4.8333   7.0014   
      47   0      60    1.34e-01   4.2816   5.2034   6.5200   5.0485   4.6845   5.3949   
      48   0      66    5.94e-01   3.9458   4.9094   6.0445   5.7924   5.1237   4.3340   
      49   0      72    7.58e-01   3.5145   4.8071   5.7712   5.0665   5.5288   3.9252   
      50   0      78    1.34e-01   4.7156   5.6054   5.0017   5.3788   5.2100   7.8712   
      51   0      84    5.97e-02   4.6722   6.0598   5.5161   4.9232   5.2900   5.1708   
      52   0      90    1.50e-01   4.6381   4.8163   5.7404   5.4386   5.2188   5.1356   
Found complex roots...
      53   0      96    2.34e-01   4.5588   4.7203   5.4988   6.7767   5.3739   5.1062   
      54   0      102   7.20e-02   4.6522   4.2977   6.2056   5.3458   6.5356   5.2956   
Found complex roots...
      55   0      108   6.00e-02   4.6297   6.0726   5.2806   6.3604   5.2274   4.9826   
Found complex roots...
      56   0      114   9.60e-02   4.6152   5.9478   6.1959   5.2293   4.8987   5.0445   
Found complex roots...
      57   0      120   8.16e-02   4.5994   5.8015   6.0119   5.1839   4.7947   4.9978   
      58   0      12    3.03e-02   4.5927   5.7116   5.9461   5.1556   4.7193   4.9757   
      59   0      18    2.03e-02   4.5851   5.6188   5.8772   5.1229   4.5940   4.9561   

biorthogonolize_left_to_right(): number of left and right states does not match
        Solving for CVS-EOMEE-CCSD B1 singlet states.

        CVS-EOMEE-CCSD/MP2 right amplitudes will be solved using Davidson.
        Amplitudes will be solved using standard  algorithm.
     Hard-coded thresholds: 
     LinDepThresh=1.00e-15  NormThresh=1.00e-06  ReorthogonThresh=1.00e-02

      Roots     MaxVec    MaxIter   Precond   Conv      Shift    
      6         120       60        1         1.00e-05  0.00e+00  
 ------------------------------------------------------------------------------
      Iter ConvRoots NVecs ResNorm Current eigenvalues (eV)
 ------------------------------------------------------------------------------
      0    0      6     2.90e+00   216.3360   216.8715   217.0772   217.4989   217.5141   217.6025   
      1    0      12    6.15e+01   214.8371   215.3870   215.5650   215.9892   216.0011   216.1134   
      2    0      18    5.73e-01   204.8716   205.4263   205.4681   205.9234   205.9348   206.0956   
      3    0      24    1.82e-02   204.3548   204.9722   204.9945   205.4672   205.5063   205.6444   
      4    0      30    2.15e-02   204.2599   204.9189   204.9360   205.4305   205.4748   205.6077   
      5    0      36    1.35e-01   203.7819   204.6046   204.7801   205.3479   205.4377   205.5495   
      6    0      42    5.18e-02   203.2235   203.7831   204.5628   205.1400   205.3634   205.4186   
      7    0      48    3.45e-02   202.9763   203.6201   204.5200   205.0761   205.3383   205.3456   
      8    0      54    2.73e-02   202.3750   203.5184   204.5054   204.9754   205.2959   205.3322   
      9    0      60    2.05e-02   201.9420   203.4774   204.5013   204.8345   205.2280   205.3054   
      10   0      66    3.57e-03   201.8628   203.4639   204.4981   204.7813   205.2001   205.2737   
      11   0      72    2.28e-03   201.8492   203.4617   204.4965   204.7633   205.1844   205.2485   
      12   0      78    2.07e-03   201.8409   203.4614   204.4964   204.7397   205.1667   205.2135   
      13   0      84    4.38e-03   201.8376   203.4611   204.4957   204.7112   205.1178   205.1845   
      14   1      90    1.17e-03   201.8371   203.4610*  204.4954   204.6914   205.0604   205.1780   
      15   1      95    1.33e-03   201.8371   203.4610*  204.4957   204.6795   205.0141   205.1755   
Degeneracy detected...
Found complex roots...
      16   3      100   1.92e-03   201.8370*  203.4610*  204.4955*  204.6733   204.9757   205.1735   
      17   3      103   9.45e-03   201.8370*  203.4610*  204.4955*  204.6647   204.7893   205.0304   
      18   3      106   6.02e-03   201.8370*  203.4610*  204.4955*  204.5728   204.6759   205.0052   
      19   3      109   2.42e-03   201.8370*  203.4610*  204.4223   204.4955*  204.6708   204.9932   
      20   3      112   8.81e-04   201.8370*  203.4610*  204.3768   204.4955*  204.6696   204.9887   
      21   3      115   2.19e-04   201.8370*  203.4610*  204.3581   204.4955*  204.6690   204.9866   
      22   3      118   2.43e-04   201.8370*  203.4610*  204.3531   204.4955*  204.6688   204.9854   
      23   3      120   6.48e-05   201.8370*  203.4610*  204.3471   204.4955*  204.6689   204.9851   
      24   4      9     1.08e-05   201.8370*  203.4610*  204.3473   204.4955*  204.6687*  204.9846   
      25   4      11    1.70e-05   201.8370*  203.4610*  204.3456   204.4955*  204.6686*  204.9844   
      26   5      13    5.08e-06   201.8370*  203.4610*  204.3460   204.4955*  204.6687*  204.9842*  
      27   5      14    5.80e-06   201.8370*  203.4610*  204.3451   204.4955*  204.6687*  204.9843*  
      28   6      15    2.72e-06   201.8370*  203.4610*  204.3454*  204.4955*  204.6686*  204.9841*  

     Davidson procedure converged

 EOMEE transition 1/B1
 Total energy = -683.27454529 a.u.  Excitation energy = 201.8370 eV.
 R0^2 = 0.0000  R1^2 = 0.8898  R2_CCVV^2 = 0.0047  R2_COVV^2 = 0.0528  Res^2 = 2.85e-07
 Conv-d = yes

 Amplitude    Transitions between orbitals
  0.2845       3 (B1) A                  ->    29 (A1) A                  
  0.2845       3 (B1) B                  ->    29 (A1) B                  
  0.2726       3 (B1) A                  ->    28 (A1) A                  
  0.2726       3 (B1) B                  ->    28 (A1) B                  
  0.2554       3 (B1) A                  ->    32 (A1) A                  
  0.2554       3 (B1) B                  ->    32 (A1) B                  
 -0.2410       3 (B1) A                  ->    37 (A1) A                  
 -0.2410       3 (B1) B                  ->    37 (A1) B                  
  0.1951       3 (B1) A                  ->    35 (A1) A                  
  0.1951       3 (B1) B                  ->    35 (A1) B                  
 -0.1415       3 (B1) A                  ->    25 (A1) A                  
 -0.1415       3 (B1) B                  ->    25 (A1) B                  
  0.1296       3 (B1) A                  ->    27 (A1) A                  
  0.1296       3 (B1) B                  ->    27 (A1) B                  
 -0.1220       3 (B1) A                  ->    38 (A1) A                  
 -0.1220       3 (B1) B                  ->    38 (A1) B                  
  0.1153       3 (B1) A                  ->    36 (A1) A                  
  0.1153       3 (B1) B                  ->    36 (A1) B                  
  0.1052       3 (B1) A                  ->    30 (A1) A                  
  0.1052       3 (B1) B                  ->    30 (A1) B                  

              Summary of significant orbitals:

               Number  Type             Irrep      Energy
               10      Occ  Alpha       3 (B1)     -8.0312
               10      Occ  Beta        3 (B1)     -8.0312
               52      Vir  Alpha      25 (A1)      0.0912
               58      Vir  Alpha      27 (A1)      0.1260
               60      Vir  Alpha      28 (A1)      0.1689
               62      Vir  Alpha      29 (A1)      0.1761
               65      Vir  Alpha      30 (A1)      0.1918
               69      Vir  Alpha      32 (A1)      0.2216
               79      Vir  Alpha      35 (A1)      0.2644
               80      Vir  Alpha      36 (A1)      0.2796
               83      Vir  Alpha      37 (A1)      0.3025
               84      Vir  Alpha      38 (A1)      0.3136
               52      Vir  Beta       25 (A1)      0.0912
               58      Vir  Beta       27 (A1)      0.1260
[...]
   A->B: 0.002126;   B->A: 0.028838
   ||gamma^AB||*||gamma^BA||: 0.000061

 ------------------------------------------------------------------------------
 State A: ccsd: 0/A1
 State B: cvs_eomee_ccsd/rhfref/singlets: 4/A1
 Transition dipole moment (a.u.):
   A->B: 0.000029 (X 0.000000, Y 0.000000, Z -0.000029)
   B->A: 0.016299 (X 0.000000, Y 0.000000, Z 0.016299)
 Oscillator strength (a.u.): -0.000000
 Norm of one-particle transition density matrix:
   A->B: 0.002412;   B->A: 0.844333
   ||gamma^AB||*||gamma^BA||: 0.002036

 ------------------------------------------------------------------------------
 State A: ccsd: 0/A1
 State B: cvs_eomee_ccsd/rhfref/singlets: 5/A1
 Transition dipole moment (a.u.):
   A->B: 0.000008 (X 0.000000, Y 0.000000, Z -0.000008)
   B->A: 0.003042 (X 0.000000, Y 0.000000, Z 0.003042)
 Oscillator strength (a.u.): -0.000000
 Norm of one-particle transition density matrix:
   A->B: 0.001306;   B->A: 0.243138
   ||gamma^AB||*||gamma^BA||: 0.000317

 ------------------------------------------------------------------------------
 State A: ccsd: 0/A1
 State B: cvs_eomee_ccsd/rhfref/singlets: 6/A1
 Transition dipole moment (a.u.):
   A->B: 0.000036 (X 0.000000, Y 0.000000, Z 0.000036)
   B->A: 0.001178 (X 0.000000, Y 0.000000, Z -0.001178)
 Oscillator strength (a.u.): -0.000000
 Norm of one-particle transition density matrix:
   A->B: 0.004419;   B->A: 0.089179
   ||gamma^AB||*||gamma^BA||: 0.000394

 ------------------------------------------------------------------------------
 State A: ccsd: 0/A1
 State B: cvs_eomee_ccsd/rhfref/singlets: 1/B1
 Transition dipole moment (a.u.):
   A->B: 0.041824 (X 0.041824, Y 0.000000, Z 0.000000)
   B->A: 0.041938 (X 0.041938, Y 0.000000, Z 0.000000)
 Oscillator strength (a.u.): 0.008674
 Norm of one-particle transition density matrix:
   A->B: 0.926264;   B->A: 0.929343
   ||gamma^AB||*||gamma^BA||: 0.860817

 ------------------------------------------------------------------------------
 State A: ccsd: 0/A1
 State B: cvs_eomee_ccsd/rhfref/singlets: 2/B1
 Transition dipole moment (a.u.):
   A->B: 0.013042 (X -0.013042, Y 0.000000, Z 0.000000)
   B->A: 0.012769 (X -0.012769, Y 0.000000, Z 0.000000)
 Oscillator strength (a.u.): 0.000830
 Norm of one-particle transition density matrix:
   A->B: 0.933148;   B->A: 0.914359
   ||gamma^AB||*||gamma^BA||: 0.853232

 ------------------------------------------------------------------------------
 State A: ccsd: 0/A1
 State B: cvs_eomee_ccsd/rhfref/singlets: 3/B1
 Transition dipole moment (a.u.):
   A->B: 0.003747 (X -0.003747, Y 0.000000, Z 0.000000)
   B->A: 0.003774 (X -0.003774, Y 0.000000, Z 0.000000)
 Oscillator strength (a.u.): 0.000071
 Norm of one-particle transition density matrix:
   A->B: 0.894372;   B->A: 0.895663
   ||gamma^AB||*||gamma^BA||: 0.801056

 ------------------------------------------------------------------------------
 State A: ccsd: 0/A1
 State B: cvs_eomee_ccsd/rhfref/singlets: 4/B1
 Transition dipole moment (a.u.):
   A->B: 0.003125 (X -0.003125, Y 0.000000, Z 0.000000)
   B->A: 0.003165 (X -0.003165, Y 0.000000, Z 0.000000)
 Oscillator strength (a.u.): 0.000050
 Norm of one-particle transition density matrix:
   A->B: 0.930362;   B->A: 0.909906
   ||gamma^AB||*||gamma^BA||: 0.846542

 ------------------------------------------------------------------------------
 State A: ccsd: 0/A1
 State B: cvs_eomee_ccsd/rhfref/singlets: 5/B1
 Transition dipole moment (a.u.):
   A->B: 0.003982 (X 0.003982, Y 0.000000, Z 0.000000)
   B->A: 0.003963 (X 0.003963, Y 0.000000, Z 0.000000)
 Oscillator strength (a.u.): 0.000079
 Norm of one-particle transition density matrix:
   A->B: 0.929443;   B->A: 0.908157
   ||gamma^AB||*||gamma^BA||: 0.844080

 ------------------------------------------------------------------------------
 State A: ccsd: 0/A1
 State B: cvs_eomee_ccsd/rhfref/singlets: 6/B1
 Transition dipole moment (a.u.):
   A->B: 0.005217 (X 0.005217, Y 0.000000, Z 0.000000)
   B->A: 0.005062 (X 0.005062, Y 0.000000, Z 0.000000)
 Oscillator strength (a.u.): 0.000133
 Norm of one-particle transition density matrix:
   A->B: 0.929478;   B->A: 0.908032
   ||gamma^AB||*||gamma^BA||: 0.843996

 ------------------------------------------------------------------------------
 State A: ccsd: 0/A1
 State B: cvs_eomee_ccsd/rhfref/singlets: 1/B2
 Transition dipole moment (a.u.):
   A->B: 0.039899 (X 0.000000, Y 0.039899, Z 0.000000)
   B->A: 0.039961 (X 0.000000, Y 0.039961, Z 0.000000)
 Oscillator strength (a.u.): 0.007884
 Norm of one-particle transition density matrix:
   A->B: 0.926173;   B->A: 0.929262
   ||gamma^AB||*||gamma^BA||: 0.860658

 ------------------------------------------------------------------------------
 State A: ccsd: 0/A1
 State B: cvs_eomee_ccsd/rhfref/singlets: 2/B2
 Transition dipole moment (a.u.):
   A->B: 0.012162 (X 0.000000, Y -0.012162, Z 0.000000)
   B->A: 0.011932 (X 0.000000, Y -0.011932, Z 0.000000)
 Oscillator strength (a.u.): 0.000723
 Norm of one-particle transition density matrix:
   A->B: 0.932999;   B->A: 0.914215
   ||gamma^AB||*||gamma^BA||: 0.852962

 ------------------------------------------------------------------------------
 State A: ccsd: 0/A1
 State B: cvs_eomee_ccsd/rhfref/singlets: 3/B2
 Transition dipole moment (a.u.):
   A->B: 0.014402 (X 0.000000, Y 0.014402, Z 0.000000)
   B->A: 0.014461 (X 0.000000, Y 0.014461, Z 0.000000)
 Oscillator strength (a.u.): 0.001039
 Norm of one-particle transition density matrix:
   A->B: 0.896528;   B->A: 0.900891
   ||gamma^AB||*||gamma^BA||: 0.807674

 ------------------------------------------------------------------------------
 State A: ccsd: 0/A1
 State B: cvs_eomee_ccsd/rhfref/singlets: 4/B2
 Transition dipole moment (a.u.):
   A->B: 0.000606 (X 0.000000, Y -0.000606, Z 0.000000)
   B->A: 0.000782 (X 0.000000, Y -0.000782, Z 0.000000)
 Oscillator strength (a.u.): 0.000002
 Norm of one-particle transition density matrix:
   A->B: 0.930250;   B->A: 0.910891
   ||gamma^AB||*||gamma^BA||: 0.847357

 ------------------------------------------------------------------------------
 State A: ccsd: 0/A1
 State B: cvs_eomee_ccsd/rhfref/singlets: 5/B2
 Transition dipole moment (a.u.):
   A->B: 0.000604 (X 0.000000, Y 0.000604, Z 0.000000)
   B->A: 0.000683 (X 0.000000, Y 0.000683, Z 0.000000)
 Oscillator strength (a.u.): 0.000002
 Norm of one-particle transition density matrix:
   A->B: 0.929310;   B->A: 0.908052
   ||gamma^AB||*||gamma^BA||: 0.843862

 ------------------------------------------------------------------------------
 State A: ccsd: 0/A1
 State B: cvs_eomee_ccsd/rhfref/singlets: 6/B2
 Transition dipole moment (a.u.):
   A->B: 0.000383 (X 0.000000, Y -0.000383, Z 0.000000)
   B->A: 0.000408 (X 0.000000, Y -0.000408, Z 0.000000)
 Oscillator strength (a.u.): 0.000001
 Norm of one-particle transition density matrix:
   A->B: 0.929306;   B->A: 0.907830
   ||gamma^AB||*||gamma^BA||: 0.843651


 All requested transition properties have been computed

 Transition Properties:   CPU 139.50 s  wall 31.06 s

 Total ccman2 time:   CPU 161317.43 s  wall 23690.15 s


 --------------------------------------------------------------
             Orbital Energies (a.u.) and Symmetries
 --------------------------------------------------------------

 Alpha MOs, Restricted
 -- Occupied --                  
-104.84  -11.31  -11.25  -11.25  -11.25  -11.25  -11.25  -10.57
  1 A1    2 A1    3 A1    1 B1    4 A1    2 B1    5 A1    6 A1                 
 -8.034  -8.031  -8.031  -1.196  -1.124  -1.036  -1.000  -0.850
  7 A1    3 B1    1 B2    8 A1    9 A1    4 B1   10 A1    5 B1                 
 -0.823  -0.715  -0.651  -0.651  -0.607  -0.593  -0.547  -0.520
 11 A1   12 A1    6 B1   13 A1    7 B1   14 A1    2 B2    8 B1                 
 -0.515  -0.471  -0.456  -0.354  -0.338
 15 A1    3 B2    9 B1    1 A2    4 B2                                         
 -- Virtual --                   
  0.014   0.020   0.021   0.032   0.032   0.033   0.043   0.044
 16 A1   10 B1   17 A1    5 B2   18 A1   11 B1    2 A2    6 B2                 
  0.045   0.048   0.054   0.055   0.056   0.063   0.063   0.065
 19 A1   20 A1   12 B1    3 A2    7 B2   21 A1    8 B2   13 B1                 
  0.068   0.069   0.070   0.073   0.074   0.078   0.091   0.096
 22 A1    9 B2   14 B1   23 A1   15 B1   24 A1   25 A1   16 B1                 
  0.100   0.102   0.104   0.106   0.126   0.163   0.169   0.172
 26 A1    4 A2   10 B2   17 B1   27 A1   11 B2   28 A1   18 B1                 
  0.176   0.180   0.181   0.192   0.211   0.213   0.214   0.222
 29 A1    5 A2   12 B2   30 A1   19 B1   31 A1   13 B2   32 A1                 
  0.222   0.229   0.232   0.235   0.238   0.243   0.244   0.247
 20 B1   14 B2    6 A2   21 B1   33 A1   15 B2   34 A1   22 B1                 
  0.252   0.264   0.280   0.291   0.295   0.303   0.314   0.330
 23 B1   35 A1   36 A1   24 B1   25 B1   37 A1   38 A1   26 B1                 
  0.357   0.366   0.378   0.414   0.418   0.432   0.441   0.491
 16 B2   39 A1   40 A1   41 A1   27 B1   42 A1   28 B1   43 A1                 
  0.500   0.509   0.509   0.620   0.630   0.643   0.648   0.661
 29 B1   44 A1   30 B1   45 A1   31 B1   32 B1   17 B2   46 A1                 
  0.720   0.730   0.742   0.743   0.745   0.772   0.782   0.793
 47 A1   33 B1   48 A1   18 B2   34 B1    7 A2   19 B2   35 B1                 
  0.821   0.822   0.823   0.880   0.883   0.898   0.934   0.936
 49 A1    8 A2   20 B2   50 A1   21 B2   51 A1   52 A1   36 B1                 
  0.955   0.973   1.018   1.023   1.039   1.060   1.067   1.081
 37 B1   53 A1   38 B1   54 A1   55 A1   39 B1   22 B2   56 A1                 
  1.094   1.100   1.132   1.139   1.173   1.192   1.220   1.225
 57 A1   40 B1   41 B1    9 A2   58 A1   42 B1   59 A1   23 B2                 
  1.235   1.271   1.309   1.352   1.377   1.443   1.467   1.474
 10 A2   60 A1   11 A2   24 B2   12 A2   61 A1   43 B1   62 A1                 
  1.581   1.662   1.728   1.776   1.787   1.824   1.831   1.844
 25 B2   63 A1   44 B1   64 A1   45 B1   26 B2   13 A2   65 A1                 
  1.891   1.908   1.909   1.961   1.999   2.008   2.042   2.103
 27 B2   66 A1   46 B1   67 A1   47 B1   28 B2   14 A2   48 B1                 
  2.168   2.218   2.220   2.221   2.236   2.243   2.285   2.323
 68 A1   49 B1   15 A2   29 B2   50 B1   69 A1   30 B2   70 A1                 
  2.352   2.368   2.390   2.547   2.574   2.623   2.647   2.736
 51 B1   16 A2   71 A1   31 B2   52 B1   32 B2   17 A2   53 B1                 
  2.748   2.798   2.801   2.830   2.861   2.932   2.976   2.992
 72 A1   73 A1   54 B1   74 A1   55 B1   75 A1   76 A1   77 A1                 
  3.009   3.026   3.036   3.042   3.066   3.190   3.194   3.203
 56 B1   78 A1   79 A1   57 B1   33 B2   34 B2   18 A2   58 B1                 
  3.206   3.283   3.288   3.321   3.473   3.567   3.625   3.757
 80 A1   35 B2   19 A2   59 B1   36 B2   60 B1   81 A1   61 B1                 
  3.782   3.902   3.919   4.022   4.187   4.384   4.442   4.510
 82 A1   62 B1   83 A1   84 A1   85 A1   63 B1   86 A1   87 A1                 
  4.516   5.123   5.263   5.442   5.447   5.754   5.779   6.187
 64 B1   88 A1   65 B1   89 A1   66 B1   90 A1   67 B1   91 A1                 
  9.641   9.707   9.794  10.430  20.635  20.695  20.708  20.825
 37 B2   68 B1   92 A1   93 A1   94 A1   95 A1   69 B1   96 A1                 
 20.852  21.127  33.018  33.069  33.145  80.200  80.266  80.282
 70 B1   97 A1   38 B2   71 B1   98 A1   99 A1  100 A1   72 B1                 
 80.380  80.405  80.613 106.885 106.926 106.989 116.062 322.039
101 A1   73 B1  102 A1   39 B2   74 B1  103 A1  104 A1  105 A1                 
322.101 322.118 322.201 322.223 322.391 364.983 365.014 365.064
106 A1   75 B1  107 A1   76 B1  108 A1   40 B2   77 B1  109 A1                 
610.3861431.6071431.6631431.6801431.7491431.7691431.9081551.634
110 A1  111 A1  112 A1   78 B1  113 A1   79 B1  114 A1   41 B2                 
*******1551.6922285.1298391.9078749.8448749.8938749.9098749.964
 80 B1  115 A1  116 A1  117 A1  118 A1  119 A1   81 B1  120 A1                 
*******8750.093****************
 82 B1  121 A1  122 A1  123 A1                                                 

 Beta MOs, Restricted
 -- Occupied --                  
-104.84  -11.31  -11.25  -11.25  -11.25  -11.25  -11.25  -10.57
  1 A1    2 A1    3 A1    1 B1    4 A1    2 B1    5 A1    6 A1                 
 -8.034  -8.031  -8.031  -1.196  -1.124  -1.036  -1.000  -0.850
  7 A1    3 B1    1 B2    8 A1    9 A1    4 B1   10 A1    5 B1                 
 -0.823  -0.715  -0.651  -0.651  -0.607  -0.593  -0.547  -0.520
 11 A1   12 A1    6 B1   13 A1    7 B1   14 A1    2 B2    8 B1                 
 -0.515  -0.471  -0.456  -0.354  -0.338
 15 A1    3 B2    9 B1    1 A2    4 B2                                         
 -- Virtual --                   
  0.014   0.020   0.021   0.032   0.032   0.033   0.043   0.044
 16 A1   10 B1   17 A1    5 B2   18 A1   11 B1    2 A2    6 B2                 
  0.045   0.048   0.054   0.055   0.056   0.063   0.063   0.065
 19 A1   20 A1   12 B1    3 A2    7 B2   21 A1    8 B2   13 B1                 
  0.068   0.069   0.070   0.073   0.074   0.078   0.091   0.096
 22 A1    9 B2   14 B1   23 A1   15 B1   24 A1   25 A1   16 B1                 
  0.100   0.102   0.104   0.106   0.126   0.163   0.169   0.172
 26 A1    4 A2   10 B2   17 B1   27 A1   11 B2   28 A1   18 B1                 
  0.176   0.180   0.181   0.192   0.211   0.213   0.214   0.222
 29 A1    5 A2   12 B2   30 A1   19 B1   31 A1   13 B2   32 A1                 
  0.222   0.229   0.232   0.235   0.238   0.243   0.244   0.247
 20 B1   14 B2    6 A2   21 B1   33 A1   15 B2   34 A1   22 B1                 
  0.252   0.264   0.280   0.291   0.295   0.303   0.314   0.330
 23 B1   35 A1   36 A1   24 B1   25 B1   37 A1   38 A1   26 B1                 
  0.357   0.366   0.378   0.414   0.418   0.432   0.441   0.491
 16 B2   39 A1   40 A1   41 A1   27 B1   42 A1   28 B1   43 A1                 
  0.500   0.509   0.509   0.620   0.630   0.643   0.648   0.661
 29 B1   44 A1   30 B1   45 A1   31 B1   32 B1   17 B2   46 A1                 
  0.720   0.730   0.742   0.743   0.745   0.772   0.782   0.793
 47 A1   33 B1   48 A1   18 B2   34 B1    7 A2   19 B2   35 B1                 
  0.821   0.822   0.823   0.880   0.883   0.898   0.934   0.936
 49 A1    8 A2   20 B2   50 A1   21 B2   51 A1   52 A1   36 B1                 
  0.955   0.973   1.018   1.023   1.039   1.060   1.067   1.081
 37 B1   53 A1   38 B1   54 A1   55 A1   39 B1   22 B2   56 A1                 
  1.094   1.100   1.132   1.139   1.173   1.192   1.220   1.225
 57 A1   40 B1   41 B1    9 A2   58 A1   42 B1   59 A1   23 B2                 
  1.235   1.271   1.309   1.352   1.377   1.443   1.467   1.474
 10 A2   60 A1   11 A2   24 B2   12 A2   61 A1   43 B1   62 A1                 
  1.581   1.662   1.728   1.776   1.787   1.824   1.831   1.844
 25 B2   63 A1   44 B1   64 A1   45 B1   26 B2   13 A2   65 A1                 
  1.891   1.908   1.909   1.961   1.999   2.008   2.042   2.103
 27 B2   66 A1   46 B1   67 A1   47 B1   28 B2   14 A2   48 B1                 
  2.168   2.218   2.220   2.221   2.236   2.243   2.285   2.323
 68 A1   49 B1   15 A2   29 B2   50 B1   69 A1   30 B2   70 A1                 
  2.352   2.368   2.390   2.547   2.574   2.623   2.647   2.736
 51 B1   16 A2   71 A1   31 B2   52 B1   32 B2   17 A2   53 B1                 
  2.748   2.798   2.801   2.830   2.861   2.932   2.976   2.992
 72 A1   73 A1   54 B1   74 A1   55 B1   75 A1   76 A1   77 A1                 
  3.009   3.026   3.036   3.042   3.066   3.190   3.194   3.203
 56 B1   78 A1   79 A1   57 B1   33 B2   34 B2   18 A2   58 B1                 
  3.206   3.283   3.288   3.321   3.473   3.567   3.625   3.757
 80 A1   35 B2   19 A2   59 B1   36 B2   60 B1   81 A1   61 B1                 
  3.782   3.902   3.919   4.022   4.187   4.384   4.442   4.510
 82 A1   62 B1   83 A1   84 A1   85 A1   63 B1   86 A1   87 A1                 
  4.516   5.123   5.263   5.442   5.447   5.754   5.779   6.187
 64 B1   88 A1   65 B1   89 A1   66 B1   90 A1   67 B1   91 A1                 
  9.641   9.707   9.794  10.430  20.635  20.695  20.708  20.825
 37 B2   68 B1   92 A1   93 A1   94 A1   95 A1   69 B1   96 A1                 
 20.852  21.127  33.018  33.069  33.145  80.200  80.266  80.282
 70 B1   97 A1   38 B2   71 B1   98 A1   99 A1  100 A1   72 B1                 
 80.380  80.405  80.613 106.885 106.926 106.989 116.062 322.039
101 A1   73 B1  102 A1   39 B2   74 B1  103 A1  104 A1  105 A1                 
322.101 322.118 322.201 322.223 322.391 364.983 365.014 365.064
106 A1   75 B1  107 A1   76 B1  108 A1   40 B2   77 B1  109 A1                 
610.3861431.6071431.6631431.6801431.7491431.7691431.9081551.634
110 A1  111 A1  112 A1   78 B1  113 A1   79 B1  114 A1   41 B2                 
*******1551.6922285.1298391.9078749.8448749.8938749.9098749.964
 80 B1  115 A1  116 A1  117 A1  118 A1  119 A1   81 B1  120 A1                 
*******8750.093****************
 82 B1  121 A1  122 A1  123 A1                                                 
 --------------------------------------------------------------

          Ground-State Mulliken Net Atomic Charges

     Atom                 Charge (a.u.)
  ----------------------------------------
      1 H                     0.191044
      2 C                    -0.470697
      3 C                    -0.327272
      4 H                     0.223588
      5 C                    -0.335005
      6 H                     0.184131
      7 C                    -0.327272
      8 H                     0.223588
      9 C                    -0.470697
     10 H                     0.191044
     11 C                     0.391984
     12 Cl                    0.525564
  ----------------------------------------
  Sum of atomic charges =    -0.000000

 -----------------------------------------------------------------
                    Cartesian Multipole Moments
 -----------------------------------------------------------------
    Charge (ESU x 10^10)
                -0.0000
    Dipole Moment (Debye)
         X      -0.0000      Y      -0.0000      Z      -1.9673
       Tot       1.9673
    Quadrupole Moments (Debye-Ang)
        XX     -42.4456     XY      -0.0000     YY     -52.7498
        XZ      -0.0000     YZ      -0.0000     ZZ     -46.7109
    Octopole Moments (Debye-Ang^2)
       XXX       0.0000    XXY      -0.0000    XYY       0.0000
       YYY      -0.0000    XXZ      -1.4003    XYZ       0.0000
       YYZ       7.5146    XZZ       0.0000    YZZ      -0.0000
       ZZZ      -6.2531
    Hexadecapole Moments (Debye-Ang^3)
      XXXX    -275.2716   XXXY      -0.0000   XXYY     -69.5895
      XYYY      -0.0000   YYYY     -64.7693   XXXZ      -0.0000
      XXYZ      -0.0000   XYYZ      -0.0000   YYYZ       0.0000
      XXZZ    -181.0997   XYZZ       0.0000   YYZZ    -165.9714
      XZZZ      -0.0000   YZZZ       0.0000   ZZZZ    -786.9599
 -----------------------------------------------------------------
Archival summary:
1\1\node24\SP\ProcedureUnspecified\BasisUnspecified\l165\krylov\SunOct1409:36:062018SunOct1409:36:062018\0\\#,ProcedureUnspecified,BasisUnspecified,\\0,1\Cl\C,1,1.73093\C,2,1.39121,1,119.398\H,3,1.08039,2,119.798,1,0,0\C,2,1.39121,1,119.398,3,-180,0\H,5,1.08039,2,119.798,1,0,0\C,3,1.39191,2,119.079,1,180,0\H,7,1.08135,3,119.367,2,-180,0\C,5,1.39191,2,119.079,1,-180,0\H,9,1.08135,5,119.367,2,180,0\C,7,1.39245,3,120.451,2,0,0\H,11,1.08085,7,120.132,3,-180,0\\HF=-689.682398\\@

 Total job time:  23731.49s(wall), 161469.00s(cpu) 
 Sun Oct 14 09:36:06 2018

        *************************************************************
        *                                                           *
        *  Thank you very much for using Q-Chem.  Have a nice day.  *
        *                                                           *
        *************************************************************


