Q-Chem Developer Version!
                  Welcome to Q-Chem
     A Quantum Leap Into The Future Of Chemistry


 Q-Chem 5.1, Q-Chem, Inc., Pleasanton, CA (2018)

 Yihan Shao,  Zhengting Gan,  E. Epifanovsky,  A. T. B. Gilbert,  M. Wormit,  
 J. Kussmann,  A. W. Lange,  A. Behn,  Jia Deng,  Xintian Feng,  D. Ghosh,  
 M. Goldey,  P. R. Horn,  L. D. Jacobson,  I. Kaliman,  T. Kus,  A. Landau,  
 Jie Liu,  E. I. Proynov,  R. M. Richard,  R. P. Steele,  E. J. Sundstrom,  
 H. L. Woodcock III,  P. M. Zimmerman,  D. Zuev,  B. Albrecht,  E. Alguire,  
 S. A. Baeppler,  D. Barton,  Z. Benda,  Y. A. Bernard,  E. J. Berquist,  
 K. B. Bravaya,  H. Burton,  D. Casanova,  Chun-Min Chang,  Yunqing Chen,  
 A. Chien,  K. D. Closser,  M. P. Coons,  S. Coriani,  S. Dasgupta,  
 A. L. Dempwolff,  M. Diedenhofen,  Hainam Do,  R. G. Edgar,  Po-Tung Fang,  
 S. Faraji,  S. Fatehi,  Qingguo Feng,  K. D. Fenk,  J. Fosso-Tande,  
 Qinghui Ge,  A. Ghysels,  G. Gidofalvi,  J. Gomes,  J. Gonthier,  A. Gunina,  
 D. Hait,  M. W. D. Hanson-Heine,  P. H. P. Harbach,  A. W. Hauser,  
 J. E. Herr,  E. G. Hohenstein,  Z. C. Holden,  Kerwin Hui,  B. C. Huynh,  
 T.-C. Jagau,  Hyunjun Ji,  B. Kaduk,  K. Khistyaev,  Jaehoon Kim,  
 P. Klunzinger,  K. Koh,  D. Kosenkov,  L. Koulias,  T. Kowalczyk,  
 C. M. Krauter,  A. Kunitsa,  Ka Un Lao,  A. Laurent,  K. V. Lawler,  
 Joonho Lee,  D. Lefrancois,  S. Lehtola,  D. S. Levine,  Yi-Pei Li,  
 You-Sheng Lin,  Fenglai Liu,  E. Livshits,  A. Luenser,  P. Manohar,  
 E. Mansoor,  S. F. Manzer,  Shan-Ping Mao,  Yuezhi Mao,  N. Mardirossian,  
 A. V. Marenich,  T. Markovich,  L. A. Martinez-Martinez,  S. A. Maurer,  
 N. J. Mayhall,  S. C. McKenzie,  J.-M. Mewes,  A. F. Morrison,  
 J. W. Mullinax,  K. Nanda,  T. S. Nguyen-Beck,  R. Olivares-Amaya,  
 J. A. Parkhill,  T. M. Perrine,  F. Plasser,  P. Pokhilko,  S. Prager,  
 A. Prociuk,  E. Ramos,  D. R. Rehn,  F. Rob,  M. Schneider,  N. Sergueev,  
 S. M. Sharada,  S. Sharma,  D. W. Small,  T. Stauch,  T. Stein,  
 Yu-Chuan Su,  A. J. W. Thom,  A. Tkatchenko,  T. Tsuchimochi,  N. M. Tubman,  
 L. Vogt,  M. L. Vidal,  O. Vydrov,  M. A. Watson,  J. Wenzel,  
 M. de Wergifosse,  T. A. Wesolowski,  A. White,  J. Witte,  A. Yamada,  
 Jun Yang,  K. Yao,  S. Yeganeh,  S. R. Yost,  Zhi-Qiang You,  A. Zech,  
 Igor Ying Zhang,  Xing Zhang,  Yan Zhao,  Ying Zhu,  B. R. Brooks,  
 G. K. L. Chan,  C. J. Cramer,  M. S. Gordon,  W. J. Hehre,  A. Klamt,  
 M. W. Schmidt,  C. D. Sherrill,  D. G. Truhlar,  A. Aspuru-Guzik,  R. Baer,  
 A. T. Bell,  N. A. Besley,  Jeng-Da Chai,  A. E. DePrince, III,  
 R. A. DiStasio Jr.,  A. Dreuw,  B. D. Dunietz,  T. R. Furlani,  
 Chao-Ping Hsu,  Yousung Jung,  Jing Kong,  D. S. Lambrecht,  WanZhen Liang,  
 C. Ochsenfeld,  V. A. Rassolov,  L. V. Slipchenko,  J. E. Subotnik,  
 T. Van Voorhis,  J. M. Herbert,  A. I. Krylov,  P. M. W. Gill,  M. Head-Gordon

 Contributors to earlier versions of Q-Chem not listed above: 
 R. D. Adamson,  B. Austin,  J. Baker,  G. J. O. Beran,  K. Brandhorst,  
 S. T. Brown,  E. F. C. Byrd,  A. K. Chakraborty,  C.-L. Cheng,  
 Siu Hung Chien,  D. M. Chipman,  D. L. Crittenden,  H. Dachsel,  
 R. J. Doerksen,  A. D. Dutoi,  L. Fusti-Molnar,  W. A. Goddard III,  
 A. Golubeva-Zadorozhnaya,  S. R. Gwaltney,  G. Hawkins,  A. Heyden,  
 S. Hirata,  G. Kedziora,  F. J. Keil,  C. Kelley,  Jihan Kim,  R. A. King,  
 R. Z. Khaliullin,  P. P. Korambath,  W. Kurlancheek,  A. M. Lee,  M. S. Lee,  
 S. V. Levchenko,  Ching Yeh Lin,  D. Liotard,  R. C. Lochan,  I. Lotan,  
 P. E. Maslen,  N. Nair,  D. P. O'Neill,  D. Neuhauser,  E. Neuscamman,  
 C. M. Oana,  R. Olson,  B. Peters,  R. Peverati,  P. A. Pieniazek,  
 Y. M. Rhee,  J. Ritchie,  M. A. Rohrdanz,  E. Rosta,  N. J. Russ,  
 H. F. Schaefer III,  N. E. Schultz,  N. Shenvi,  A. C. Simmonett,  A. Sodt,  
 D. Stuck,  K. S. Thanthiriwatte,  V. Vanovschi,  Tao Wang,  A. Warshel,  
 C. F. Williams,  Q. Wu,  X. Xu,  W. Zhang

 Please cite Q-Chem as follows:
 Y. Shao et al., Mol. Phys. 113, 184-215 (2015)
 DOI: 10.1080/00268976.2014.952696

 Q-Chem 5.1.1 for Intel X86 EM64T Linux

 Parts of Q-Chem use Armadillo 8.300.2 (Tropical Shenanigans).
 http://arma.sourceforge.net/

 Q-Chem begins on Sun Oct 14 10:29:46 2018  

node20
Host: 0

     Scratch files written to /scratch/krylov/qchem28726//
Core orbitals will be frozen
Input Ideriv = 0
Curr. Ideriv = -1
Max.  Ideriv = 0

Checking the input file for inconsistencies... 	...done.

--------------------------------------------------------------
User input:
--------------------------------------------------------------
$comment
Optimized Cl-Bz, XAS, 
6-311(2+,+)G** with uncontacted core on carbon and chlorine (both S and P)
$end

$molecule
0 1
 H        -2.1400320233    0.0000000000    0.5090177858
 C        -1.2120583232    0.0000000000   -0.0442490642
 C        -1.2042956497    0.0000000000   -1.4361358281
 H        -2.1437187877    0.0000000000   -1.9716770234
 C         0.0000000000    0.0000000000   -2.1351330277
 H         0.0000000000    0.0000000000   -3.2159870334
 C         1.2042956497    0.0000000000   -1.4361358281
 H         2.1437187877    0.0000000000   -1.9716770234
 C         1.2120583232    0.0000000000   -0.0442490642
 H         2.1400320233    0.0000000000    0.5090177858
 C         0.0000000000    0.0000000000    0.6386615242
 Cl        0.0000000000    0.0000000000    2.3695929760
$end

$rem
   JOB_TYPE  =  SP
   BASIS  =  general
   METHOD  =  EOM-CCSD
   CVS_EE_STATES = [6,0,0,0]   
   CC_MEMORY = 80000
   cc_trans_prop = 1
   EOM_DAVIDSON_MAXVECTORS = 120
   eom_shift = 07386  201 eV
$end

$basis
H    0
S    3    1.000000
   3.38650000E+01    2.54938000E-02 
   5.09479000E+00    1.90373000E-01 
   1.15879000E+00    8.52161000E-01 
S    1    1.000000
   3.25840000E-01    1.00000000E+00 
S    1    1.000000
   1.02741000E-01    1.00000000E+00 
S    1    1.000000
   3.60000000E-02    1.00000000E+00 
P    1    1.000000
   7.50000000E-01    1.00000000E+00 
****
C    0
S    1    1.000000
   4.56324000E+03    1.96665000E-03 
S    1    1.000000
   6.82024000E+02    1.52306000E-02 
S    1    1.000000
   1.54973000E+02    7.61269000E-02 
S    1    1.000000
   4.44553000E+01    2.60801000E-01 
S    1    1.000000
   1.30290000E+01    6.16462000E-01 
S    1    1.000000
   1.82773000E+00    2.21006000E-01 
SP   3    1.000000
   2.09642000E+01    1.14660000E-01   4.02487000E-02 
   4.80331000E+00    9.19999000E-01   2.37594000E-01 
   1.45933000E+00   -3.03068000E-03   8.15854000E-01 
SP   1    1.000000
   4.83456000E-01    1.00000000E+00   1.00000000E+00 
SP   1    1.000000
   1.45585000E-01    1.00000000E+00   1.00000000E+00 
SP   1    1.000000
   4.38000000E-02    1.00000000E+00   1.00000000E+00 
SP   1    1.000000
   1.31927711E-02    1.00000000E+00   1.00000000E+00 
D    1    1.000000
   6.26000000E-01    1.00000000E+00 
****
Cl   0
S    1    1.000000
   1.05819000E+05    7.38000000E-04 
S    1    1.000000
   1.58720000E+04    5.71800000E-03 
S    1    1.000000
   3.61965000E+03    2.94950000E-02 
S    1    1.000000
   1.03080000E+03    1.17286000E-01 
S    1    1.000000
   3.39908000E+02    3.62949000E-01 
S    1    1.000000
   1.24538000E+02    5.84149000E-01 
S    3    1.000000
   1.24538000E+02    1.34177000E-01 
   4.95135000E+01    6.24250000E-01 
   2.08056000E+01    2.91756000E-01 
S    1    1.000000
   6.58346000E+00    1.00000000E+00 
S    1    1.000000
   2.56468000E+00    1.00000000E+00 
S    1    1.000000
   5.59763000E-01    1.00000000E+00 
S    1    1.000000
   1.83273000E-01    1.00000000E+00 
P    1    1.000000
   5.89776000E+02    2.39100000E-03 
P    1    1.000000
   1.39849000E+02    1.85040000E-02 
P    1    1.000000
   4.51413000E+01    8.13770000E-02 
P    1    1.000000
   1.68733000E+01    2.21552000E-01 
P    1    1.000000
   6.74110000E+00    7.72569000E-01 
P    2    1.000000
   6.74110000E+00   -1.57224400E+00 
   2.77152000E+00    9.92389000E-01 
P    1    1.000000
   1.02387000E+00    1.00000000E+00 
P    1    1.000000
   3.81368000E-01    1.00000000E+00 
P    1    1.000000
   1.09437000E-01    1.00000000E+00 
SP   1    1.000000
   4.83000000E-02    1.00000000E+00   1.00000000E+00 
SP   1    1.000000
   1.45481928E-02    1.00000000E+00   1.00000000E+00 
D    1    1.000000
   7.50000000E-01    1.00000000E+00 
****
$end

--------------------------------------------------------------
 ----------------------------------------------------------------
             Standard Nuclear Orientation (Angstroms)
    I     Atom           X                Y                Z
 ----------------------------------------------------------------
    1      H      -2.1400320233     0.0000000000     0.3814604176
    2      C      -1.2120583232     0.0000000000    -0.1718064324
    3      C      -1.2042956497     0.0000000000    -1.5636931963
    4      H      -2.1437187877     0.0000000000    -2.0992343916
    5      C      -0.0000000000     0.0000000000    -2.2626903959
    6      H      -0.0000000000     0.0000000000    -3.3435444016
    7      C       1.2042956497     0.0000000000    -1.5636931963
    8      H       2.1437187877     0.0000000000    -2.0992343916
    9      C       1.2120583232    -0.0000000000    -0.1718064324
   10      H       2.1400320233    -0.0000000000     0.3814604176
   11      C       0.0000000000    -0.0000000000     0.5111041560
   12      Cl      0.0000000000    -0.0000000000     2.2420356078
 ----------------------------------------------------------------
 Molecular Point Group                 C2v   NOp =  4
 Largest Abelian Subgroup              C2v   NOp =  4
 Nuclear Repulsion Energy =   316.4076139427 hartrees
 There are       29 alpha and       29 beta electrons

 Q-Chem warning in module forms1/BasisType.C, line 1703:

 Setting pure/cartesian flag to 2111 for general basis


 Requested basis set is non-standard
 There are 120 shells and 272 basis functions
MEM_TOTAL is adjusted to CC_MEMORY + MEM_STATIC!
 Total memory of 80192MB is distributed as follows: 
   QALLOC including MEM_STATIC uses 192MB
   MEM_STATIC is set to 192MB
   CCMAN JOB total memory use is  80000MB
 Warning: actual memory use might exceed 80192MB

 Total QAlloc Memory Limit    192 MB
 Mega-Array Size       188 MB
 MEM_STATIC part       192 MB

                       Distance Matrix (Angstroms)
             H (  1)   C (  2)   C (  3)   H (  4)   C (  5)   H (  6)
   C (  2)  1.080389
   C (  3)  2.158524  1.391908
   H (  4)  2.480698  2.140787  1.081351
   C (  5)  3.401657  2.416791  1.392453  2.149941
   H (  6)  4.295975  3.395439  2.148999  2.478677  1.080854
   C (  7)  3.868869  2.788569  2.408591  3.390576  1.392453  2.148999
   H (  8)  4.950189  3.869912  3.390576  4.287438  2.149941  2.478677
   C (  9)  3.397442  2.424117  2.788569  3.869912  2.416791  3.395439
   H ( 10)  4.280064  3.397442  3.868869  4.950189  3.401657  4.295975
   C ( 11)  2.143955  1.391205  2.398981  3.377780  2.773795  3.854649
   Cl( 12)  2.835750  2.701059  3.991729  4.841710  4.504726  5.585580
             C (  7)   H (  8)   C (  9)   H ( 10)   C ( 11)
   H (  8)  1.081351
   C (  9)  1.391908  2.140787
   H ( 10)  2.158524  2.480698  1.080389
   C ( 11)  2.398981  3.377780  1.391205  2.143955
   Cl( 12)  3.991729  4.841710  2.701059  2.835750  1.730931

 A cutoff of  1.0D-14 yielded   5925 shell pairs
 There are     34620 function pairs (     36530 Cartesian)

 -------------------------------------------------------
 OpenMP Integral Computing Module                       
 Release: version 1.0, May 2013, Q-Chem Inc. Pittsburgh 
 -------------------------------------------------------
 Integral Job Info:
 Integral job number is                      11
 Integral operator is                         1
 short-range coefficients                     0
 long-range coefficients              100000000
 Omega coefficients                           0
 if combine SR and LR in K                    0
 Integral screening is                        0
 Integral computing path is                   2
 max size of driver memory is            800000
 size of driver memory is                593474
 size of scratch memory is              1367512
 max col of scratch BK array               1296
 max len of scratch array in speh3          155
 max len of scratch index in speh4           18
 max int batch size is                      520
 min int batch size is                       52
 fixed nKL is                                52
 max L of basis functions is                  2
 order of int derivative is                   0
 number of shells is                        120
 number of basis is                         279
 number of cartesian basis is               279
 number of contracted shell pairs          5925
 number of primitive shell pairs           7829
 maxK2 (contraction) of shell pair            9
 max number of K2 of shell pair               1
 max number of CS2 of shell pair           1679
 max number of PS2 of shell pair           1679
 mem total for path MDJ                  543004
 -------------------------------------------------------
 Smallest overlap matrix eigenvalue = 1.05E-08
 Linear dependence detected in AO basis
 Tighter screening thresholds may be required for diffuse basis sets
 Use S2THRESH > 14 and THRESH = 14 in case of SCF convergence issues
 Number of orthogonalized atomic orbitals = 265
 Maximum deviation from orthogonality = 3.105E-10

 Scale SEOQF with 1.000000e-01/1.000000e-01/1.000000e-01

 Standard Electronic Orientation quadrupole field applied
 Nucleus-field energy     =    -0.0000000161 hartrees
 Guess MOs from core Hamiltonian diagonalization

 -----------------------------------------------------------------------
  General SCF calculation program by
  Eric Jon Sundstrom, Paul Horn, Yuezhi Mao, Dmitri Zuev, Alec White,
  David Stuck, Shaama M.S., Shane Yost, Joonho Lee, David Small,
  Daniel Levine, Susi Lehtola, Hugh Burton, Evgeny Epifanovsky
 -----------------------------------------------------------------------
 Hartree-Fock
 using 8 threads for integral computing
 -------------------------------------------------------
 OpenMP Integral computing Module                
 Release: version 2.0, May 2017, Q-Chem Inc. Pleasanton 
 -------------------------------------------------------
 A restricted SCF calculation will be
 performed using DIIS
 SCF converges when DIIS error is below 1.0e-08
 ---------------------------------------
  Cycle       Energy         DIIS error
 ---------------------------------------
    1    -537.1855718775      2.52e-01  
    2    -373.6823029519      9.61e-02  
    3    -432.9347092682      1.79e-01  
    4    -513.0460690453      1.41e-01  
    5    -566.6366259268      1.12e-01  
    6    -627.8282645591      7.99e-02  
    7    -673.8698735798      4.63e-02  
    8    -682.8725215191      2.64e-02  
    9    -688.9575624268      9.65e-03  
   10    -689.5830385027      3.08e-03  
   11    -689.6721499795      9.49e-04  
   12    -689.6807732751      2.57e-04  
   13    -689.6821070524      1.32e-04  
   14    -689.6823788831      3.14e-05  
   15    -689.6823952582      9.31e-06  
   16    -689.6823973187      3.78e-06  
   17    -689.6823977579      1.66e-06  
   18    -689.6823979018      6.66e-07  
   19    -689.6823979196      1.26e-07  
   20    -689.6823979189      4.61e-08  
   21    -689.6823979141      9.29e-09  Convergence criterion met
 ---------------------------------------
 SCF time:   CPU 127.90s  wall 18.00s 
 SCF   energy in the final basis set =     -689.6823979141
 Total energy in the final basis set =     -689.6823979141


 ------------------------------------------------------------------------------

   CCMAN2: suite of methods based on coupled cluster
           and equation of motion theories.

   Components:
   * libvmm-1.3-trunk
     by Evgeny Epifanovsky, Ilya Kaliman.
   * libtensor-2.5-trunk
     by Evgeny Epifanovsky, Michael Wormit, Dmitry Zuev, Sam Manzer, 
        Ilya Kaliman.
   * libcc-2.5-trunk
     by Evgeny Epifanovsky, Arik Landau, Tomasz Kus, Kirill Khistyaev, 
        Dmitry Zuev, Prashant Manohar, Xintian Feng, Anna Krylov, 
        Matthew Goldey, Alec White, Thomas Jagau, Kaushik Nanda, 
        Anastasia Gunina, Alexander Kunitsa, Joonho Lee.

   CCMAN original authors:
   Anna I. Krylov, C. David Sherrill, Steven R. Gwaltney,
   Edward F. C. Byrd (2000)
   Sergey V. Levchenko, Lyudmila V. Slipchenko, Tao Wang,
   Ana-Maria C. Cristian (2003)
   Piotr A. Pieniazek, C. Melania Oana, Evgeny Epifanovsky (2007)
   Prashant Manohar (2009)

 ------------------------------------------------------------------------------


 Allocating and initializing 80000MB of RAM...
 Calculation will run on 8 cores.


 Alpha MOs, Restricted
 -- Occupied --                  
-104.84  -11.31  -11.25  -11.25  -11.25  -11.25  -11.25  -10.57
  1 A1    2 A1    3 A1    1 B1    4 A1    2 B1    5 A1    6 A1                 
 -8.034  -8.031  -8.031  -1.196  -1.124  -1.036  -1.000  -0.850
  7 A1    3 B1    1 B2    8 A1    9 A1    4 B1   10 A1    5 B1                 
 -0.823  -0.715  -0.651  -0.651  -0.607  -0.593  -0.547  -0.520
 11 A1   12 A1    6 B1   13 A1    7 B1   14 A1    2 B2    8 B1                 
 -0.515  -0.471  -0.456  -0.354  -0.338
 15 A1    3 B2    9 B1    1 A2    4 B2                                         
 -- Virtual --                   
  0.014   0.020   0.021   0.032   0.032   0.033   0.043   0.044
 16 A1   10 B1   17 A1    5 B2   18 A1   11 B1    2 A2    6 B2                 
  0.045   0.048   0.054   0.055   0.056   0.063   0.063   0.065
 19 A1   20 A1   12 B1    3 A2    7 B2   21 A1    8 B2   13 B1                 
  0.068   0.069   0.070   0.073   0.074   0.078   0.091   0.096
 22 A1    9 B2   14 B1   23 A1   15 B1   24 A1   25 A1   16 B1                 
  0.100   0.102   0.104   0.106   0.126   0.163   0.169   0.172
 26 A1    4 A2   10 B2   17 B1   27 A1   11 B2   28 A1   18 B1                 
  0.176   0.180   0.181   0.192   0.211   0.213   0.214   0.222
 29 A1    5 A2   12 B2   30 A1   19 B1   31 A1   13 B2   32 A1                 
  0.222   0.229   0.232   0.235   0.238   0.243   0.244   0.247
 20 B1   14 B2    6 A2   21 B1   33 A1   15 B2   34 A1   22 B1                 
  0.252   0.264   0.280   0.291   0.295   0.303   0.314   0.330
 23 B1   35 A1   36 A1   24 B1   25 B1   37 A1   38 A1   26 B1                 
  0.357   0.366   0.378   0.414   0.418   0.432   0.441   0.491
 16 B2   39 A1   40 A1   41 A1   27 B1   42 A1   28 B1   43 A1                 
  0.500   0.509   0.509   0.620   0.630   0.643   0.648   0.661
 29 B1   44 A1   30 B1   45 A1   31 B1   32 B1   17 B2   46 A1                 
  0.720   0.730   0.742   0.743   0.745   0.772   0.782   0.793
 47 A1   33 B1   48 A1   18 B2   34 B1    7 A2   19 B2   35 B1                 
  0.821   0.822   0.823   0.880   0.883   0.898   0.934   0.936
 49 A1    8 A2   20 B2   50 A1   21 B2   51 A1   52 A1   36 B1                 
  0.955   0.973   1.018   1.023   1.039   1.060   1.067   1.081
 37 B1   53 A1   38 B1   54 A1   55 A1   39 B1   22 B2   56 A1                 
  1.094   1.100   1.132   1.139   1.173   1.192   1.220   1.225
 57 A1   40 B1   41 B1    9 A2   58 A1   42 B1   59 A1   23 B2                 
  1.235   1.271   1.309   1.352   1.377   1.443   1.467   1.474
 10 A2   60 A1   11 A2   24 B2   12 A2   61 A1   43 B1   62 A1                 
  1.581   1.662   1.728   1.776   1.787   1.824   1.831   1.844
 25 B2   63 A1   44 B1   64 A1   45 B1   26 B2   13 A2   65 A1                 
  1.891   1.908   1.909   1.961   1.999   2.008   2.042   2.103
 27 B2   66 A1   46 B1   67 A1   47 B1   28 B2   14 A2   48 B1                 
  2.168   2.218   2.220   2.221   2.236   2.243   2.285   2.323
 68 A1   49 B1   15 A2   29 B2   50 B1   69 A1   30 B2   70 A1                 
  2.352   2.368   2.390   2.547   2.574   2.623   2.647   2.736
 51 B1   16 A2   71 A1   31 B2   52 B1   32 B2   17 A2   53 B1                 
  2.748   2.798   2.801   2.830   2.861   2.932   2.976   2.992
 72 A1   73 A1   54 B1   74 A1   55 B1   75 A1   76 A1   77 A1                 
  3.009   3.026   3.036   3.042   3.066   3.190   3.194   3.203
 56 B1   78 A1   79 A1   57 B1   33 B2   34 B2   18 A2   58 B1                 
  3.206   3.283   3.288   3.321   3.473   3.567   3.625   3.757
 80 A1   35 B2   19 A2   59 B1   36 B2   60 B1   81 A1   61 B1                 
  3.782   3.902   3.919   4.022   4.187   4.384   4.442   4.510
 82 A1   62 B1   83 A1   84 A1   85 A1   63 B1   86 A1   87 A1                 
  4.516   5.123   5.263   5.442   5.447   5.754   5.779   6.187
 64 B1   88 A1   65 B1   89 A1   66 B1   90 A1   67 B1   91 A1                 
  9.641   9.707   9.794  10.430  20.635  20.695  20.708  20.825
 37 B2   68 B1   92 A1   93 A1   94 A1   95 A1   69 B1   96 A1                 
 20.852  21.127  33.018  33.069  33.145  80.200  80.266  80.282
 70 B1   97 A1   38 B2   71 B1   98 A1   99 A1  100 A1   72 B1                 
 80.380  80.405  80.613 106.885 106.926 106.989 116.062 322.039
101 A1   73 B1  102 A1   39 B2   74 B1  103 A1  104 A1  105 A1                 
322.101 322.118 322.201 322.223 322.391 364.983 365.014 365.064
106 A1   75 B1  107 A1   76 B1  108 A1   40 B2   77 B1  109 A1                 
610.3861431.6071431.6631431.6801431.7491431.7691431.9081551.634
110 A1  111 A1  112 A1   78 B1  113 A1   79 B1  114 A1   41 B2                 
*******1551.6922285.1298391.9078749.8448749.8938749.9098749.964
 80 B1  115 A1  116 A1  117 A1  118 A1  119 A1   81 B1  120 A1                 
*******8750.093****************
 82 B1  121 A1  122 A1  123 A1                                                 

 Beta MOs, Restricted
 -- Occupied --                  
-104.84  -11.31  -11.25  -11.25  -11.25  -11.25  -11.25  -10.57
  1 A1    2 A1    3 A1    1 B1    4 A1    2 B1    5 A1    6 A1                 
 -8.034  -8.031  -8.031  -1.196  -1.124  -1.036  -1.000  -0.850
  7 A1    3 B1    1 B2    8 A1    9 A1    4 B1   10 A1    5 B1                 
 -0.823  -0.715  -0.651  -0.651  -0.607  -0.593  -0.547  -0.520
 11 A1   12 A1    6 B1   13 A1    7 B1   14 A1    2 B2    8 B1                 
 -0.515  -0.471  -0.456  -0.354  -0.338
 15 A1    3 B2    9 B1    1 A2    4 B2                                         
 -- Virtual --                   
  0.014   0.020   0.021   0.032   0.032   0.033   0.043   0.044
 16 A1   10 B1   17 A1    5 B2   18 A1   11 B1    2 A2    6 B2                 
  0.045   0.048   0.054   0.055   0.056   0.063   0.063   0.065
 19 A1   20 A1   12 B1    3 A2    7 B2   21 A1    8 B2   13 B1                 
  0.068   0.069   0.070   0.073   0.074   0.078   0.091   0.096
 22 A1    9 B2   14 B1   23 A1   15 B1   24 A1   25 A1   16 B1                 
  0.100   0.102   0.104   0.106   0.126   0.163   0.169   0.172
 26 A1    4 A2   10 B2   17 B1   27 A1   11 B2   28 A1   18 B1                 
  0.176   0.180   0.181   0.192   0.211   0.213   0.214   0.222
 29 A1    5 A2   12 B2   30 A1   19 B1   31 A1   13 B2   32 A1                 
  0.222   0.229   0.232   0.235   0.238   0.243   0.244   0.247
 20 B1   14 B2    6 A2   21 B1   33 A1   15 B2   34 A1   22 B1                 
  0.252   0.264   0.280   0.291   0.295   0.303   0.314   0.330
 23 B1   35 A1   36 A1   24 B1   25 B1   37 A1   38 A1   26 B1                 
  0.357   0.366   0.378   0.414   0.418   0.432   0.441   0.491
 16 B2   39 A1   40 A1   41 A1   27 B1   42 A1   28 B1   43 A1                 
  0.500   0.509   0.509   0.620   0.630   0.643   0.648   0.661
 29 B1   44 A1   30 B1   45 A1   31 B1   32 B1   17 B2   46 A1                 
  0.720   0.730   0.742   0.743   0.745   0.772   0.782   0.793
 47 A1   33 B1   48 A1   18 B2   34 B1    7 A2   19 B2   35 B1                 
  0.821   0.822   0.823   0.880   0.883   0.898   0.934   0.936
 49 A1    8 A2   20 B2   50 A1   21 B2   51 A1   52 A1   36 B1                 
  0.955   0.973   1.018   1.023   1.039   1.060   1.067   1.081
 37 B1   53 A1   38 B1   54 A1   55 A1   39 B1   22 B2   56 A1                 
  1.094   1.100   1.132   1.139   1.173   1.192   1.220   1.225
 57 A1   40 B1   41 B1    9 A2   58 A1   42 B1   59 A1   23 B2                 
  1.235   1.271   1.309   1.352   1.377   1.443   1.467   1.474
 10 A2   60 A1   11 A2   24 B2   12 A2   61 A1   43 B1   62 A1                 
  1.581   1.662   1.728   1.776   1.787   1.824   1.831   1.844
 25 B2   63 A1   44 B1   64 A1   45 B1   26 B2   13 A2   65 A1                 
  1.891   1.908   1.909   1.961   1.999   2.008   2.042   2.103
 27 B2   66 A1   46 B1   67 A1   47 B1   28 B2   14 A2   48 B1                 
  2.168   2.218   2.220   2.221   2.236   2.243   2.285   2.323
 68 A1   49 B1   15 A2   29 B2   50 B1   69 A1   30 B2   70 A1                 
  2.352   2.368   2.390   2.547   2.574   2.623   2.647   2.736
 51 B1   16 A2   71 A1   31 B2   52 B1   32 B2   17 A2   53 B1                 
  2.748   2.798   2.801   2.830   2.861   2.932   2.976   2.992
 72 A1   73 A1   54 B1   74 A1   55 B1   75 A1   76 A1   77 A1                 
  3.009   3.026   3.036   3.042   3.066   3.190   3.194   3.203
 56 B1   78 A1   79 A1   57 B1   33 B2   34 B2   18 A2   58 B1                 
  3.206   3.283   3.288   3.321   3.473   3.567   3.625   3.757
 80 A1   35 B2   19 A2   59 B1   36 B2   60 B1   81 A1   61 B1                 
  3.782   3.902   3.919   4.022   4.187   4.384   4.442   4.510
 82 A1   62 B1   83 A1   84 A1   85 A1   63 B1   86 A1   87 A1                 
  4.516   5.123   5.263   5.442   5.447   5.754   5.779   6.187
 64 B1   88 A1   65 B1   89 A1   66 B1   90 A1   67 B1   91 A1                 
  9.641   9.707   9.794  10.430  20.635  20.695  20.708  20.825
 37 B2   68 B1   92 A1   93 A1   94 A1   95 A1   69 B1   96 A1                 
 20.852  21.127  33.018  33.069  33.145  80.200  80.266  80.282
 70 B1   97 A1   38 B2   71 B1   98 A1   99 A1  100 A1   72 B1                 
 80.380  80.405  80.613 106.885 106.926 106.989 116.062 322.039
101 A1   73 B1  102 A1   39 B2   74 B1  103 A1  104 A1  105 A1                 
322.101 322.118 322.201 322.223 322.391 364.983 365.014 365.064
106 A1   75 B1  107 A1   76 B1  108 A1   40 B2   77 B1  109 A1                 
610.3861431.6071431.6631431.6801431.7491431.7691431.9081551.634
110 A1  111 A1  112 A1   78 B1  113 A1   79 B1  114 A1   41 B2                 
*******1551.6922285.1298391.9078749.8448749.8938749.9098749.964
 80 B1  115 A1  116 A1  117 A1  118 A1  119 A1   81 B1  120 A1                 
*******8750.093****************
 82 B1  121 A1  122 A1  123 A1                                                 

 Occupation and symmetry of molecular orbitals

 Point group: C2v (4 irreducible representations).

                           A1   A2   B1   B2    All 
 ----------------------------------------------------
 All molecular orbitals:
  - Alpha                  123  19   82   41    265 
  - Beta                   123  19   82   41    265 
 ----------------------------------------------------
 Alpha orbitals:
  - Frozen occupied        7    0    3    1     11  
  - Active occupied        8    1    6    3     18  
  - Active virtual         108  18   73   37    236 
  - Frozen virtual         0    0    0    0     0   
 ----------------------------------------------------
 Beta orbitals:
  - Frozen occupied        7    0    3    1     11  
  - Active occupied        8    1    6    3     18  
  - Active virtual         108  18   73   37    236 
  - Frozen virtual         0    0    0    0     0   
 ----------------------------------------------------

 Import integrals:   CPU 0.00 s  wall 0.00 s

 Import integrals:   CPU 651.18 s  wall 93.73 s

 MP2 amplitudes:   CPU 6.02 s  wall 5.17 s

Running a double precision version
           CCSD T amplitudes will be solved using DIIS.

           Start     Size      MaxIter   EConv     TConv     
           3         7         100       1.00e-06  1.00e-04  
 ------------------------------------------------------------------------------
           Energy (a.u.)   Ediff      Tdiff       Comment
 ------------------------------------------------------------------------------
          -690.65561155                           
     1    -690.65787569   2.26e-03   9.86e-01     
     2    -690.68764889   2.98e-02   1.34e-01     
     3    -690.68808622   4.37e-04   4.67e-02     
     4    -690.69090776   2.82e-03   1.40e-02     Switched to DIIS steps.
     5    -690.69190818   1.00e-03   1.16e-02     
     6    -690.69193399   2.58e-05   2.14e-03     
     7    -690.69192023   1.38e-05   1.01e-03     
     8    -690.69191921   1.02e-06   1.97e-04     
     9    -690.69191932   1.07e-07   7.41e-05     
 ------------------------------------------------------------------------------
          -690.69191932                           CCSD T converged.

End of double precision
 SCF energy                 = -689.68239791
 MP2 energy                 = -690.65561155
 CCSD correlation energy     =   -1.00952141
 CCSD total energy           = -690.69191932

 CCSD  T1^2 = 0.0079  T2^2 = 0.3940  Leading amplitudes:

 Amplitude    Orbitals with energies
  0.0210       1 (A2) A                  ->    7 (A2) A                   
              -0.3535                          0.7719                     
  0.0210       1 (A2) B                  ->    7 (A2) B                   
              -0.3535                          0.7719                     
  0.0202       4 (B2) A                  ->    19 (B2) A                  
              -0.3380                          0.7818                     
  0.0202       4 (B2) B                  ->    19 (B2) B                  
              -0.3380                          0.7818                     

 Amplitude    Orbitals with energies
 -0.0691       1 (A2) A      1 (A2) B    ->    4 (A2) A      4 (A2) B     
              -0.3535       -0.3535            0.1018        0.1018       
  0.0691       1 (A2) A      1 (A2) B    ->    4 (A2) B      4 (A2) A     
              -0.3535       -0.3535            0.1018        0.1018       
  0.0691       1 (A2) B      1 (A2) A    ->    4 (A2) A      4 (A2) B     
              -0.3535       -0.3535            0.1018        0.1018       
 -0.0691       1 (A2) B      1 (A2) A    ->    4 (A2) B      4 (A2) A     
              -0.3535       -0.3535            0.1018        0.1018       

 Computing CCSD intemediates for later calculations in double precision
 Finished.

Running a double precision version
           CCSD Lambda amplitudes will be solved using DIIS.
           Start     Size      MaxIter   EConv     LConv     
           3         7         100       1.00e-06  1.00e-04  
 ------------------------------------------------------------------------------
            Enorm      Ldiff       Comment
 ------------------------------------------------------------------------------
     1     5.69e-02   4.60e-02     
     2     1.01e-02   9.73e-04     
     3     3.44e-03   1.86e-03     
     4     1.40e-03   3.02e-04     Switched to DIIS steps.
     5     4.14e-04   3.23e-04     
     6     1.84e-04   6.68e-05     
     7     5.19e-05   2.19e-05     
     8     2.01e-05   4.24e-06     
     9     6.82e-06   6.57e-07     
    10     2.83e-06   4.35e-08     
    11     1.10e-06   7.94e-08     
    12     4.01e-07   7.79e-08     
 ------------------------------------------------------------------------------
                                   CCSD Lambda converged.

 CCSD calculation:   CPU 1953.44 s  wall 284.17 s

        Solving for CVS-EOMEE-CCSD A1 singlet states.

        CVS-EOMEE-CCSD/MP2 right amplitudes will be solved using Davidson.
        Amplitudes will be solved using shifted  algorithm.
     Hard-coded thresholds: 
     LinDepThresh=1.00e-15  NormThresh=1.00e-06  ReorthogonThresh=1.00e-02

      Roots     MaxVec    MaxIter   Precond   Conv      Shift    
      6         120       60        1         1.00e-05  7.39e+00  
 ------------------------------------------------------------------------------
      Iter ConvRoots NVecs ResNorm Current eigenvalues (eV)
 ------------------------------------------------------------------------------
      0    0      6     2.89e+00   216.4014   216.8065   217.0411   217.1423   217.5379   217.5790   
      1    0      12    6.12e+01   214.9253   215.2992   215.5292   215.6529   216.0260   216.0888   
      2    0      18    5.73e-01   205.0126   205.2883   205.4509   205.6049   205.9596   206.0598   
      3    0      24    1.90e-02   204.4939   204.8377   204.9661   205.1286   205.5115   205.6009   
      4    0      30    2.33e-02   204.3955   204.7882   204.9122   205.0674   205.4780   205.5612   
      5    0      36    1.31e-01   203.9431   204.6384   204.7625   204.8074   205.4191   205.4842   
      6    0      42    5.83e-02   203.3889   204.0380   204.4327   204.4966   205.2651   205.3037   
      7    0      48    2.66e-02   203.1802   203.8459   204.3945   204.4284   205.2055   205.2449   
      8    0      54    1.69e-02   202.7902   203.7248   204.3386   204.3969   205.1388   205.2224   
      9    0      60    3.90e-02   202.3569   203.6574   204.2089   204.3878   205.0061   205.2063   
      10   0      66    1.16e-02   202.2526   203.6345   204.0628   204.3818   204.9352   205.0693   
      11   0      72    6.31e-03   202.2391   203.6300   203.9932   204.3795   204.9100   204.9733   
      12   0      78    8.33e-03   202.2301   203.6288   203.8986   204.3789   204.8145   204.9144   
      13   0      84    9.30e-03   202.2252   203.6256   203.7573   204.3767   204.6620   204.8890   
      14   0      90    1.68e-03   202.2239   203.6226   203.7109   204.3754   204.5990   204.8668   
      15   0      96    2.25e-03   202.2239   203.6201   203.6889   204.3752   204.5651   204.8526   
      16   1      102   7.02e-04   202.2239*  203.6163   203.6738   204.3741   204.5409   204.8470   
      17   1      107   8.78e-04   202.2238*  203.6149   203.6684   204.3735   204.5243   204.8433   
      18   1      112   1.57e-04   202.2238*  203.6135   203.6655   204.3733   204.5160   204.8407   
      19   1      117   1.51e-04   202.2238*  203.6131   203.6647   204.3732   204.5124   204.8398   
      20   2      120   7.02e-05   202.2238*  203.6132   203.6647   204.3731*  204.5112   204.8394   
      21   4      10    1.06e-05   202.2238*  203.6130*  203.6643*  204.3730*  204.5104   204.8392   
      22   3      12    3.86e-05   202.2238*  203.6130*  203.6643   204.3731*  204.5098   204.8393   
      23   4      15    7.20e-06   202.2238*  203.6130*  203.6643*  204.3730*  204.5095   204.8388   
      24   4      17    2.34e-05   202.2238*  203.6129*  203.6641*  204.3730*  204.5091   204.8385   
      25   3      19    5.51e-05   202.2238*  203.6130*  203.6643   204.3730*  204.5091   204.8386   
      26   5      22    1.45e-05   202.2238*  203.6130*  203.6644*  204.3730*  204.5096   204.8388*  
      27   5      23    5.32e-06   202.2238*  203.6129*  203.6642*  204.3730*  204.5091   204.8388*  
      28   6      24    1.99e-06   202.2238*  203.6130*  203.6642*  204.3730*  204.5090*  204.8388*  

     Davidson procedure converged

 EOMEE transition 1/A1
 Total energy = -683.26033249 a.u.  Excitation energy = 202.2238 eV.
 R0^2 = 0.0000  R1^2 = 0.8835  R2_CCVV^2 = 0.0047  R2_COVV^2 = 0.0559  Res^2 = 6.33e-07
 Conv-d = yes

 Amplitude    Transitions between orbitals
 -0.2870       7 (A1) A                  ->    28 (A1) A                  
 -0.2870       7 (A1) B                  ->    28 (A1) B                  
 -0.2869       7 (A1) A                  ->    29 (A1) A                  
 -0.2869       7 (A1) B                  ->    29 (A1) B                  
 -0.2402       7 (A1) A                  ->    32 (A1) A                  
 -0.2402       7 (A1) B                  ->    32 (A1) B                  
  0.2282       7 (A1) A                  ->    37 (A1) A                  
  0.2282       7 (A1) B                  ->    37 (A1) B                  
 -0.1823       7 (A1) A                  ->    35 (A1) A                  
 -0.1823       7 (A1) B                  ->    35 (A1) B                  
  0.1520       7 (A1) A                  ->    25 (A1) A                  
  0.1520       7 (A1) B                  ->    25 (A1) B                  
 -0.1304       7 (A1) A                  ->    27 (A1) A                  
 -0.1304       7 (A1) B                  ->    27 (A1) B                  
  0.1114       7 (A1) A                  ->    38 (A1) A                  
  0.1114       7 (A1) B                  ->    38 (A1) B                  
 -0.1070       7 (A1) A                  ->    36 (A1) A                  
 -0.1070       7 (A1) B                  ->    36 (A1) B                  

              Summary of significant orbitals:

               Number  Type             Irrep      Energy
               9       Occ  Alpha       7 (A1)     -8.0337
               9       Occ  Beta        7 (A1)     -8.0337
               52      Vir  Alpha      25 (A1)      0.0912
               58      Vir  Alpha      27 (A1)      0.1260
               60      Vir  Alpha      28 (A1)      0.1689
               62      Vir  Alpha      29 (A1)      0.1761
               69      Vir  Alpha      32 (A1)      0.2216
               79      Vir  Alpha      35 (A1)      0.2644
               80      Vir  Alpha      36 (A1)      0.2796
               83      Vir  Alpha      37 (A1)      0.3025
               84      Vir  Alpha      38 (A1)      0.3136
               52      Vir  Beta       25 (A1)      0.0912
               58      Vir  Beta       27 (A1)      0.1260
               60      Vir  Beta       28 (A1)      0.1689
               62      Vir  Beta       29 (A1)      0.1761
               69      Vir  Beta       32 (A1)      0.2216
               79      Vir  Beta       35 (A1)      0.2644
               80      Vir  Beta       36 (A1)      0.2796
               83      Vir  Beta       37 (A1)      0.3025
               84      Vir  Beta       38 (A1)      0.3136


 EOMEE transition 2/A1
 Total energy = -683.20928094 a.u.  Excitation energy = 203.6129 eV.
 R0^2 = 0.0000  R1^2 = 0.8651  R2_CCVV^2 = 0.0046  R2_COVV^2 = 0.0652  Res^2 = 1.45e-07
 Conv-d = yes

 Amplitude    Transitions between orbitals
 -0.3552       1 (B2) A                  ->    10 (B2) A                  
 -0.3552       1 (B2) B                  ->    10 (B2) B                  
 -0.3005       7 (A1) A                  ->    23 (A1) A                  
 -0.3005       7 (A1) B                  ->    23 (A1) B                  
 -0.2636       7 (A1) A                  ->    17 (A1) A                  
 -0.2636       7 (A1) B                  ->    17 (A1) B                  
 -0.1976       7 (A1) A                  ->    16 (A1) A                  
 -0.1976       7 (A1) B                  ->    16 (A1) B                  
  0.1252       7 (A1) A                  ->    30 (A1) A                  
  0.1252       7 (A1) B                  ->    30 (A1) B                  
  0.1127       7 (A1) A                  ->    22 (A1) A                  
  0.1127       7 (A1) B                  ->    22 (A1) B                  
  0.1093       7 (A1) A                  ->    32 (A1) A                  
  0.1093       7 (A1) B                  ->    32 (A1) B                  

              Summary of significant orbitals:

               Number  Type             Irrep      Energy
               9       Occ  Alpha       7 (A1)     -8.0337
               11      Occ  Alpha       1 (B2)     -8.0310
               9       Occ  Beta        7 (A1)     -8.0337
               11      Occ  Beta        1 (B2)     -8.0310
               30      Vir  Alpha      16 (A1)      0.0143
               32      Vir  Alpha      17 (A1)      0.0212
               46      Vir  Alpha      22 (A1)      0.0682
               49      Vir  Alpha      23 (A1)      0.0734
               65      Vir  Alpha      30 (A1)      0.1918
               69      Vir  Alpha      32 (A1)      0.2216
               56      Vir  Alpha      10 (B2)      0.1035
               30      Vir  Beta       16 (A1)      0.0143
               32      Vir  Beta       17 (A1)      0.0212
               46      Vir  Beta       22 (A1)      0.0682
               49      Vir  Beta       23 (A1)      0.0734
               65      Vir  Beta       30 (A1)      0.1918
               69      Vir  Beta       32 (A1)      0.2216
               56      Vir  Beta       10 (B2)      0.1035


 EOMEE transition 3/A1
 Total energy = -683.20739598 a.u.  Excitation energy = 203.6642 eV.
 R0^2 = 0.0000  R1^2 = 0.8587  R2_CCVV^2 = 0.0046  R2_COVV^2 = 0.0684  Res^2 = 3.03e-07
 Conv-d = yes

 Amplitude    Transitions between orbitals
  0.4874       1 (B2) A                  ->    10 (B2) A                  
  0.4874       1 (B2) B                  ->    10 (B2) B                  
 -0.1998       7 (A1) A                  ->    23 (A1) A                  
 -0.1998       7 (A1) B                  ->    23 (A1) B                  
 -0.1728       7 (A1) A                  ->    17 (A1) A                  
 -0.1728       7 (A1) B                  ->    17 (A1) B                  
  0.1508       1 (B2) A                  ->    6 (B2) A                   
  0.1508       1 (B2) B                  ->    6 (B2) B                   
 -0.1394       7 (A1) A                  ->    16 (A1) A                  
 -0.1394       7 (A1) B                  ->    16 (A1) B                  
 -0.1135       1 (B2) A                  ->    5 (B2) A                   
 -0.1135       1 (B2) B                  ->    5 (B2) B                   

              Summary of significant orbitals:

               Number  Type             Irrep      Energy
               9       Occ  Alpha       7 (A1)     -8.0337
               11      Occ  Alpha       1 (B2)     -8.0310
               9       Occ  Beta        7 (A1)     -8.0337
               11      Occ  Beta        1 (B2)     -8.0310
               30      Vir  Alpha      16 (A1)      0.0143
               32      Vir  Alpha      17 (A1)      0.0212
               49      Vir  Alpha      23 (A1)      0.0734
               33      Vir  Alpha       5 (B2)      0.0317
               37      Vir  Alpha       6 (B2)      0.0436
               56      Vir  Alpha      10 (B2)      0.1035
               30      Vir  Beta       16 (A1)      0.0143
               32      Vir  Beta       17 (A1)      0.0212
               49      Vir  Beta       23 (A1)      0.0734
               33      Vir  Beta        5 (B2)      0.0317
               37      Vir  Beta        6 (B2)      0.0436
               56      Vir  Beta       10 (B2)      0.1035


 EOMEE transition 4/A1
 Total energy = -683.18134895 a.u.  Excitation energy = 204.3730 eV.
 R0^2 = 0.0000  R1^2 = 0.8673  R2_CCVV^2 = 0.0046  R2_COVV^2 = 0.0641  Res^2 = 3.13e-07
 Conv-d = yes

 Amplitude    Transitions between orbitals
  0.3562       3 (B1) A                  ->    10 (B1) A                  
  0.3562       3 (B1) B                  ->    10 (B1) B                  
 -0.3264       3 (B1) A                  ->    11 (B1) A                  
 -0.3264       3 (B1) B                  ->    11 (B1) B                  
 -0.1867       3 (B1) A                  ->    14 (B1) A                  
 -0.1867       3 (B1) B                  ->    14 (B1) B                  
 -0.1768       3 (B1) A                  ->    17 (B1) A                  
 -0.1768       3 (B1) B                  ->    17 (B1) B                  
 -0.1545       3 (B1) A                  ->    12 (B1) A                  
 -0.1545       3 (B1) B                  ->    12 (B1) B                  
 -0.1502       3 (B1) A                  ->    16 (B1) A                  
 -0.1502       3 (B1) B                  ->    16 (B1) B                  
 -0.1246       1 (B2) A                  ->    5 (B2) A                   
 -0.1246       1 (B2) B                  ->    5 (B2) B                   
 -0.1141       3 (B1) A                  ->    18 (B1) A                  
 -0.1141       3 (B1) B                  ->    18 (B1) B                  
 -0.1131       3 (B1) A                  ->    13 (B1) A                  
 -0.1131       3 (B1) B                  ->    13 (B1) B                  
  0.1067       1 (B2) A                  ->    6 (B2) A                   
  0.1067       1 (B2) B                  ->    6 (B2) B                   

              Summary of significant orbitals:

               Number  Type             Irrep      Energy
               10      Occ  Alpha       3 (B1)     -8.0312
               11      Occ  Alpha       1 (B2)     -8.0310
               10      Occ  Beta        3 (B1)     -8.0312
               11      Occ  Beta        1 (B2)     -8.0310
               31      Vir  Alpha      10 (B1)      0.0202
               35      Vir  Alpha      11 (B1)      0.0334
               40      Vir  Alpha      12 (B1)      0.0538
               45      Vir  Alpha      13 (B1)      0.0648
               48      Vir  Alpha      14 (B1)      0.0702
               53      Vir  Alpha      16 (B1)      0.0957
               57      Vir  Alpha      17 (B1)      0.1061
               61      Vir  Alpha      18 (B1)      0.1724
               33      Vir  Alpha       5 (B2)      0.0317
               37      Vir  Alpha       6 (B2)      0.0436
               31      Vir  Beta       10 (B1)      0.0202
               35      Vir  Beta       11 (B1)      0.0334
               40      Vir  Beta       12 (B1)      0.0538
               45      Vir  Beta       13 (B1)      0.0648
               48      Vir  Beta       14 (B1)      0.0702
               53      Vir  Beta       16 (B1)      0.0957
               57      Vir  Beta       17 (B1)      0.1061
               61      Vir  Beta       18 (B1)      0.1724
               33      Vir  Beta        5 (B2)      0.0317
               37      Vir  Beta        6 (B2)      0.0436


 EOMEE transition 5/A1
 Total energy = -683.17635037 a.u.  Excitation energy = 204.5090 eV.
 R0^2 = 0.0000  R1^2 = 0.8664  R2_CCVV^2 = 0.0046  R2_COVV^2 = 0.0645  Res^2 = 3.76e-06
 Conv-d = yes

 Amplitude    Transitions between orbitals
  0.3999       1 (B2) A                  ->    5 (B2) A                   
  0.3999       1 (B2) B                  ->    5 (B2) B                   
 -0.3096       1 (B2) A                  ->    6 (B2) A                   
 -0.3096       1 (B2) B                  ->    6 (B2) B                   
  0.1961       1 (B2) A                  ->    7 (B2) A                   
  0.1961       1 (B2) B                  ->    7 (B2) B                   
 -0.1773       1 (B2) A                  ->    11 (B2) A                  
 -0.1773       1 (B2) B                  ->    11 (B2) B                  
  0.1517       1 (B2) A                  ->    12 (B2) A                  
  0.1517       1 (B2) B                  ->    12 (B2) B                  
  0.1503       1 (B2) A                  ->    10 (B2) A                  
  0.1503       1 (B2) B                  ->    10 (B2) B                  
  0.1209       3 (B1) A                  ->    10 (B1) A                  
  0.1209       3 (B1) B                  ->    10 (B1) B                  

              Summary of significant orbitals:

               Number  Type             Irrep      Energy
               10      Occ  Alpha       3 (B1)     -8.0312
               11      Occ  Alpha       1 (B2)     -8.0310
               10      Occ  Beta        3 (B1)     -8.0312
               11      Occ  Beta        1 (B2)     -8.0310
               31      Vir  Alpha      10 (B1)      0.0202
               33      Vir  Alpha       5 (B2)      0.0317
               37      Vir  Alpha       6 (B2)      0.0436
               42      Vir  Alpha       7 (B2)      0.0559
               56      Vir  Alpha      10 (B2)      0.1035
               59      Vir  Alpha      11 (B2)      0.1629
               64      Vir  Alpha      12 (B2)      0.1812
               31      Vir  Beta       10 (B1)      0.0202
               33      Vir  Beta        5 (B2)      0.0317
               37      Vir  Beta        6 (B2)      0.0436
               42      Vir  Beta        7 (B2)      0.0559
               56      Vir  Beta       10 (B2)      0.1035
               59      Vir  Beta       11 (B2)      0.1629
               64      Vir  Beta       12 (B2)      0.1812


 EOMEE transition 6/A1
 Total energy = -683.16423011 a.u.  Excitation energy = 204.8388 eV.
 R0^2 = 0.0000  R1^2 = 0.8632  R2_CCVV^2 = 0.0045  R2_COVV^2 = 0.0662  Res^2 = 6.77e-06
 Conv-d = yes

 Amplitude    Transitions between orbitals
 -0.3511       7 (A1) A                  ->    19 (A1) A                  
 -0.3511       7 (A1) B                  ->    19 (A1) B                  
 -0.3260       7 (A1) A                  ->    16 (A1) A                  
 -0.3260       7 (A1) B                  ->    16 (A1) B                  
  0.2228       7 (A1) A                  ->    18 (A1) A                  
  0.2228       7 (A1) B                  ->    18 (A1) B                  
  0.1882       7 (A1) A                  ->    17 (A1) A                  
  0.1882       7 (A1) B                  ->    17 (A1) B                  
 -0.1639       7 (A1) A                  ->    25 (A1) A                  
 -0.1639       7 (A1) B                  ->    25 (A1) B                  
 -0.1513       7 (A1) A                  ->    20 (A1) A                  
 -0.1513       7 (A1) B                  ->    20 (A1) B                  
 -0.1136       7 (A1) A                  ->    29 (A1) A                  
 -0.1136       7 (A1) B                  ->    29 (A1) B                  

              Summary of significant orbitals:

               Number  Type             Irrep      Energy
               9       Occ  Alpha       7 (A1)     -8.0337
               9       Occ  Beta        7 (A1)     -8.0337
               30      Vir  Alpha      16 (A1)      0.0143
               32      Vir  Alpha      17 (A1)      0.0212
               34      Vir  Alpha      18 (A1)      0.0319
               38      Vir  Alpha      19 (A1)      0.0450
               39      Vir  Alpha      20 (A1)      0.0478
               52      Vir  Alpha      25 (A1)      0.0912
               62      Vir  Alpha      29 (A1)      0.1761
               30      Vir  Beta       16 (A1)      0.0143
               32      Vir  Beta       17 (A1)      0.0212
               34      Vir  Beta       18 (A1)      0.0319
               38      Vir  Beta       19 (A1)      0.0450
               39      Vir  Beta       20 (A1)      0.0478
               52      Vir  Beta       25 (A1)      0.0912
               62      Vir  Beta       29 (A1)      0.1761


      CVS-EOM-CCSD/MP2 left amplitudes will be solved using Davidson.
        Amplitudes will be solved using MOM  algorithm.
     Hard-coded thresholds: 
     LinDepThresh=1.00e-15  NormThresh=1.00e-06  ReorthogonThresh=1.00e-02

      Roots     MaxVec    MaxIter   Precond   Conv      Shift    
      6         120       60        1         1.00e-05  7.39e+00  
 ------------------------------------------------------------------------------
      Iter ConvRoots NVecs ResNorm Current eigenvalues (eV)
 ------------------------------------------------------------------------------
      0    0      6     1.61e-02   202.2238   203.6130   203.6642   204.3730   204.5090   204.8388   
      1    0      12    1.31e+02   202.2238   203.6129   203.6642   204.3730   204.5090   204.8388   
      2    0      18    2.34e-01   202.2238   203.6129   203.6642   204.3730   204.5090   204.8388   
      3    0      24    3.28e-03   202.2238   203.6129   203.6642   204.3730   204.5090   204.8388   
      4    0      30    8.53e-04   202.2238   203.6129   203.6642   204.3730   204.5090   204.8388   
      5    0      36    5.20e-02   202.2238   203.6129   203.6642   204.3730   204.5087   204.8385   
      6    1      42    5.66e-05   202.2238   203.6129   203.6642   204.3730*  204.5090   204.8388   
      7    1      47    1.36e-04   202.2238*  203.6129   203.6642   204.3730   204.5090   204.8388   
      8    1      52    1.16e-04   202.2238*  203.6129   203.6642   204.3730   204.5090   204.8388   
      9    1      57    9.58e-04   202.2238   203.6129   203.6642   204.3730*  204.5090   204.8388   
      10   4      62    3.44e-05   202.2238*  203.6129*  203.6642*  204.3730*  204.5090   204.8388   
      11   1      64    4.60e-05   202.2238*  203.6129   203.6642   204.3730   204.5090   204.8388   
      12   2      69    3.28e-05   202.2238*  203.6129*  203.6642   204.3730   204.5090   204.8387   
      13   1      73    9.34e-05   202.2238   203.6129   203.6642   204.3730*  204.5090   204.8387   
      14   0      78    8.92e-05   202.2238   203.6129   203.6642   204.3730   204.5090   204.8387   
      15   2      84    2.80e-05   202.2238   203.6129*  203.6642*  204.3730   204.5089   204.8387   
      16   4      88    2.33e-05   202.2238*  203.6129*  203.6642*  204.3730*  204.5089   204.8387   
      17   2      90    1.99e-04   202.2238*  203.6129   203.6642   204.3730*  204.5089   204.8387   
      18   2      94    1.46e-02   202.2238*  203.6129*  203.6642   204.3730   204.5089   204.8386   
      19   4      98    6.09e-06   202.2238   203.6129*  203.6642*  204.3730*  204.5089*  204.8387   
      20   2      100   5.12e-05   202.2238*  203.6129*  203.6642   204.3730   204.5089   204.8387   
      21   4      104   1.27e-05   202.2238*  203.6129*  203.6642*  204.3730*  204.5089   204.8387   
      22   1      106   5.92e-05   202.2238*  203.6129   203.6642   204.3730   204.5090   204.8387   
      23   6      111   2.69e-06   202.2238*  203.6129*  203.6642*  204.3730*  204.5089*  204.8387*  

     Davidson procedure converged

 CVS-EOMEE-CCSD calculation:   CPU 38787.19 s  wall 5681.68 s


 Start computing the transition properties

 ------------------------------------------------------------------------------
 State A: ccsd: 0/A1
 State B: cvs_eomee_ccsd/rhfref/singlets: 1/A1
 Transition dipole moment (a.u.):
   A->B: 0.005474 (X 0.000000, Y 0.000000, Z -0.005474)
   B->A: 0.005745 (X 0.000000, Y 0.000000, Z -0.005745)
 Oscillator strength (a.u.): 0.000156
 Norm of one-particle transition density matrix:
   A->B: 0.923992;   B->A: 0.925391
   ||gamma^AB||*||gamma^BA||: 0.855054

 ------------------------------------------------------------------------------
 State A: ccsd: 0/A1
 State B: cvs_eomee_ccsd/rhfref/singlets: 2/A1
 Transition dipole moment (a.u.):
   A->B: 0.011637 (X 0.000000, Y 0.000000, Z 0.011637)
   B->A: 0.013586 (X 0.000000, Y 0.000000, Z 0.013586)
 Oscillator strength (a.u.): 0.000789
 Norm of one-particle transition density matrix:
   A->B: 0.919998;   B->A: 0.913161
   ||gamma^AB||*||gamma^BA||: 0.840106

 ------------------------------------------------------------------------------
 State A: ccsd: 0/A1
 State B: cvs_eomee_ccsd/rhfref/singlets: 3/A1
 Transition dipole moment (a.u.):
   A->B: 0.025997 (X 0.000000, Y 0.000000, Z 0.025997)
   B->A: 0.027066 (X 0.000000, Y 0.000000, Z 0.027066)
 Oscillator strength (a.u.): 0.003511
 Norm of one-particle transition density matrix:
   A->B: 0.908321;   B->A: 0.908882
   ||gamma^AB||*||gamma^BA||: 0.825556

 ------------------------------------------------------------------------------
 State A: ccsd: 0/A1
 State B: cvs_eomee_ccsd/rhfref/singlets: 4/A1
 Transition dipole moment (a.u.):
   A->B: 0.001984 (X 0.000000, Y 0.000000, Z -0.001984)
   B->A: 0.002204 (X 0.000000, Y 0.000000, Z -0.002204)
 Oscillator strength (a.u.): 0.000022
 Norm of one-particle transition density matrix:
   A->B: 0.930664;   B->A: 0.910517
   ||gamma^AB||*||gamma^BA||: 0.847385

 ------------------------------------------------------------------------------
 State A: ccsd: 0/A1
 State B: cvs_eomee_ccsd/rhfref/singlets: 5/A1
 Transition dipole moment (a.u.):
   A->B: 0.001997 (X 0.000000, Y 0.000000, Z 0.001997)
   B->A: 0.001889 (X 0.000000, Y 0.000000, Z 0.001889)
 Oscillator strength (a.u.): 0.000019
 Norm of one-particle transition density matrix:
   A->B: 0.928991;   B->A: 0.910171
   ||gamma^AB||*||gamma^BA||: 0.845541

 ------------------------------------------------------------------------------
 State A: ccsd: 0/A1
 State B: cvs_eomee_ccsd/rhfref/singlets: 6/A1
 Transition dipole moment (a.u.):
   A->B: 0.004573 (X 0.000000, Y 0.000000, Z -0.004573)
   B->A: 0.004565 (X 0.000000, Y 0.000000, Z -0.004565)
 Oscillator strength (a.u.): 0.000105
 Norm of one-particle transition density matrix:
   A->B: 0.928479;   B->A: 0.907243
   ||gamma^AB||*||gamma^BA||: 0.842356


 All requested transition properties have been computed

 Transition Properties:   CPU 47.44 s  wall 10.44 s

 Total ccman2 time:   CPU 41473.86 s  wall 6081.61 s


 --------------------------------------------------------------
             Orbital Energies (a.u.) and Symmetries
 --------------------------------------------------------------

 Alpha MOs, Restricted
 -- Occupied --                  
-104.84  -11.31  -11.25  -11.25  -11.25  -11.25  -11.25  -10.57
  1 A1    2 A1    3 A1    1 B1    4 A1    2 B1    5 A1    6 A1                 
 -8.034  -8.031  -8.031  -1.196  -1.124  -1.036  -1.000  -0.850
  7 A1    3 B1    1 B2    8 A1    9 A1    4 B1   10 A1    5 B1                 
 -0.823  -0.715  -0.651  -0.651  -0.607  -0.593  -0.547  -0.520
 11 A1   12 A1    6 B1   13 A1    7 B1   14 A1    2 B2    8 B1                 
 -0.515  -0.471  -0.456  -0.354  -0.338
 15 A1    3 B2    9 B1    1 A2    4 B2                                         
 -- Virtual --                   
  0.014   0.020   0.021   0.032   0.032   0.033   0.043   0.044
 16 A1   10 B1   17 A1    5 B2   18 A1   11 B1    2 A2    6 B2                 
  0.045   0.048   0.054   0.055   0.056   0.063   0.063   0.065
 19 A1   20 A1   12 B1    3 A2    7 B2   21 A1    8 B2   13 B1                 
  0.068   0.069   0.070   0.073   0.074   0.078   0.091   0.096
 22 A1    9 B2   14 B1   23 A1   15 B1   24 A1   25 A1   16 B1                 
  0.100   0.102   0.104   0.106   0.126   0.163   0.169   0.172
 26 A1    4 A2   10 B2   17 B1   27 A1   11 B2   28 A1   18 B1                 
  0.176   0.180   0.181   0.192   0.211   0.213   0.214   0.222
 29 A1    5 A2   12 B2   30 A1   19 B1   31 A1   13 B2   32 A1                 
  0.222   0.229   0.232   0.235   0.238   0.243   0.244   0.247
 20 B1   14 B2    6 A2   21 B1   33 A1   15 B2   34 A1   22 B1                 
  0.252   0.264   0.280   0.291   0.295   0.303   0.314   0.330
 23 B1   35 A1   36 A1   24 B1   25 B1   37 A1   38 A1   26 B1                 
  0.357   0.366   0.378   0.414   0.418   0.432   0.441   0.491
 16 B2   39 A1   40 A1   41 A1   27 B1   42 A1   28 B1   43 A1                 
  0.500   0.509   0.509   0.620   0.630   0.643   0.648   0.661
 29 B1   44 A1   30 B1   45 A1   31 B1   32 B1   17 B2   46 A1                 
  0.720   0.730   0.742   0.743   0.745   0.772   0.782   0.793
 47 A1   33 B1   48 A1   18 B2   34 B1    7 A2   19 B2   35 B1                 
  0.821   0.822   0.823   0.880   0.883   0.898   0.934   0.936
 49 A1    8 A2   20 B2   50 A1   21 B2   51 A1   52 A1   36 B1                 
  0.955   0.973   1.018   1.023   1.039   1.060   1.067   1.081
 37 B1   53 A1   38 B1   54 A1   55 A1   39 B1   22 B2   56 A1                 
  1.094   1.100   1.132   1.139   1.173   1.192   1.220   1.225
 57 A1   40 B1   41 B1    9 A2   58 A1   42 B1   59 A1   23 B2                 
  1.235   1.271   1.309   1.352   1.377   1.443   1.467   1.474
 10 A2   60 A1   11 A2   24 B2   12 A2   61 A1   43 B1   62 A1                 
  1.581   1.662   1.728   1.776   1.787   1.824   1.831   1.844
 25 B2   63 A1   44 B1   64 A1   45 B1   26 B2   13 A2   65 A1                 
  1.891   1.908   1.909   1.961   1.999   2.008   2.042   2.103
 27 B2   66 A1   46 B1   67 A1   47 B1   28 B2   14 A2   48 B1                 
  2.168   2.218   2.220   2.221   2.236   2.243   2.285   2.323
 68 A1   49 B1   15 A2   29 B2   50 B1   69 A1   30 B2   70 A1                 
  2.352   2.368   2.390   2.547   2.574   2.623   2.647   2.736
 51 B1   16 A2   71 A1   31 B2   52 B1   32 B2   17 A2   53 B1                 
  2.748   2.798   2.801   2.830   2.861   2.932   2.976   2.992
 72 A1   73 A1   54 B1   74 A1   55 B1   75 A1   76 A1   77 A1                 
  3.009   3.026   3.036   3.042   3.066   3.190   3.194   3.203
 56 B1   78 A1   79 A1   57 B1   33 B2   34 B2   18 A2   58 B1                 
  3.206   3.283   3.288   3.321   3.473   3.567   3.625   3.757
 80 A1   35 B2   19 A2   59 B1   36 B2   60 B1   81 A1   61 B1                 
  3.782   3.902   3.919   4.022   4.187   4.384   4.442   4.510
 82 A1   62 B1   83 A1   84 A1   85 A1   63 B1   86 A1   87 A1                 
  4.516   5.123   5.263   5.442   5.447   5.754   5.779   6.187
 64 B1   88 A1   65 B1   89 A1   66 B1   90 A1   67 B1   91 A1                 
  9.641   9.707   9.794  10.430  20.635  20.695  20.708  20.825
 37 B2   68 B1   92 A1   93 A1   94 A1   95 A1   69 B1   96 A1                 
 20.852  21.127  33.018  33.069  33.145  80.200  80.266  80.282
 70 B1   97 A1   38 B2   71 B1   98 A1   99 A1  100 A1   72 B1                 
 80.380  80.405  80.613 106.885 106.926 106.989 116.062 322.039
101 A1   73 B1  102 A1   39 B2   74 B1  103 A1  104 A1  105 A1                 
322.101 322.118 322.201 322.223 322.391 364.983 365.014 365.064
106 A1   75 B1  107 A1   76 B1  108 A1   40 B2   77 B1  109 A1                 
610.3861431.6071431.6631431.6801431.7491431.7691431.9081551.634
110 A1  111 A1  112 A1   78 B1  113 A1   79 B1  114 A1   41 B2                 
*******1551.6922285.1298391.9078749.8448749.8938749.9098749.964
 80 B1  115 A1  116 A1  117 A1  118 A1  119 A1   81 B1  120 A1                 
*******8750.093****************
 82 B1  121 A1  122 A1  123 A1                                                 

 Beta MOs, Restricted
 -- Occupied --                  
-104.84  -11.31  -11.25  -11.25  -11.25  -11.25  -11.25  -10.57
  1 A1    2 A1    3 A1    1 B1    4 A1    2 B1    5 A1    6 A1                 
 -8.034  -8.031  -8.031  -1.196  -1.124  -1.036  -1.000  -0.850
  7 A1    3 B1    1 B2    8 A1    9 A1    4 B1   10 A1    5 B1                 
 -0.823  -0.715  -0.651  -0.651  -0.607  -0.593  -0.547  -0.520
 11 A1   12 A1    6 B1   13 A1    7 B1   14 A1    2 B2    8 B1                 
 -0.515  -0.471  -0.456  -0.354  -0.338
 15 A1    3 B2    9 B1    1 A2    4 B2                                         
 -- Virtual --                   
  0.014   0.020   0.021   0.032   0.032   0.033   0.043   0.044
 16 A1   10 B1   17 A1    5 B2   18 A1   11 B1    2 A2    6 B2                 
  0.045   0.048   0.054   0.055   0.056   0.063   0.063   0.065
 19 A1   20 A1   12 B1    3 A2    7 B2   21 A1    8 B2   13 B1                 
  0.068   0.069   0.070   0.073   0.074   0.078   0.091   0.096
 22 A1    9 B2   14 B1   23 A1   15 B1   24 A1   25 A1   16 B1                 
  0.100   0.102   0.104   0.106   0.126   0.163   0.169   0.172
 26 A1    4 A2   10 B2   17 B1   27 A1   11 B2   28 A1   18 B1                 
  0.176   0.180   0.181   0.192   0.211   0.213   0.214   0.222
 29 A1    5 A2   12 B2   30 A1   19 B1   31 A1   13 B2   32 A1                 
  0.222   0.229   0.232   0.235   0.238   0.243   0.244   0.247
 20 B1   14 B2    6 A2   21 B1   33 A1   15 B2   34 A1   22 B1                 
  0.252   0.264   0.280   0.291   0.295   0.303   0.314   0.330
 23 B1   35 A1   36 A1   24 B1   25 B1   37 A1   38 A1   26 B1                 
  0.357   0.366   0.378   0.414   0.418   0.432   0.441   0.491
 16 B2   39 A1   40 A1   41 A1   27 B1   42 A1   28 B1   43 A1                 
  0.500   0.509   0.509   0.620   0.630   0.643   0.648   0.661
 29 B1   44 A1   30 B1   45 A1   31 B1   32 B1   17 B2   46 A1                 
  0.720   0.730   0.742   0.743   0.745   0.772   0.782   0.793
 47 A1   33 B1   48 A1   18 B2   34 B1    7 A2   19 B2   35 B1                 
  0.821   0.822   0.823   0.880   0.883   0.898   0.934   0.936
 49 A1    8 A2   20 B2   50 A1   21 B2   51 A1   52 A1   36 B1                 
  0.955   0.973   1.018   1.023   1.039   1.060   1.067   1.081
 37 B1   53 A1   38 B1   54 A1   55 A1   39 B1   22 B2   56 A1                 
  1.094   1.100   1.132   1.139   1.173   1.192   1.220   1.225
 57 A1   40 B1   41 B1    9 A2   58 A1   42 B1   59 A1   23 B2                 
  1.235   1.271   1.309   1.352   1.377   1.443   1.467   1.474
 10 A2   60 A1   11 A2   24 B2   12 A2   61 A1   43 B1   62 A1                 
  1.581   1.662   1.728   1.776   1.787   1.824   1.831   1.844
 25 B2   63 A1   44 B1   64 A1   45 B1   26 B2   13 A2   65 A1                 
  1.891   1.908   1.909   1.961   1.999   2.008   2.042   2.103
 27 B2   66 A1   46 B1   67 A1   47 B1   28 B2   14 A2   48 B1                 
  2.168   2.218   2.220   2.221   2.236   2.243   2.285   2.323
 68 A1   49 B1   15 A2   29 B2   50 B1   69 A1   30 B2   70 A1                 
  2.352   2.368   2.390   2.547   2.574   2.623   2.647   2.736
 51 B1   16 A2   71 A1   31 B2   52 B1   32 B2   17 A2   53 B1                 
  2.748   2.798   2.801   2.830   2.861   2.932   2.976   2.992
 72 A1   73 A1   54 B1   74 A1   55 B1   75 A1   76 A1   77 A1                 
  3.009   3.026   3.036   3.042   3.066   3.190   3.194   3.203
 56 B1   78 A1   79 A1   57 B1   33 B2   34 B2   18 A2   58 B1                 
  3.206   3.283   3.288   3.321   3.473   3.567   3.625   3.757
 80 A1   35 B2   19 A2   59 B1   36 B2   60 B1   81 A1   61 B1                 
  3.782   3.902   3.919   4.022   4.187   4.384   4.442   4.510
 82 A1   62 B1   83 A1   84 A1   85 A1   63 B1   86 A1   87 A1                 
  4.516   5.123   5.263   5.442   5.447   5.754   5.779   6.187
 64 B1   88 A1   65 B1   89 A1   66 B1   90 A1   67 B1   91 A1                 
  9.641   9.707   9.794  10.430  20.635  20.695  20.708  20.825
 37 B2   68 B1   92 A1   93 A1   94 A1   95 A1   69 B1   96 A1                 
 20.852  21.127  33.018  33.069  33.145  80.200  80.266  80.282
 70 B1   97 A1   38 B2   71 B1   98 A1   99 A1  100 A1   72 B1                 
 80.380  80.405  80.613 106.885 106.926 106.989 116.062 322.039
101 A1   73 B1  102 A1   39 B2   74 B1  103 A1  104 A1  105 A1                 
322.101 322.118 322.201 322.223 322.391 364.983 365.014 365.064
106 A1   75 B1  107 A1   76 B1  108 A1   40 B2   77 B1  109 A1                 
610.3861431.6071431.6631431.6801431.7491431.7691431.9081551.634
110 A1  111 A1  112 A1   78 B1  113 A1   79 B1  114 A1   41 B2                 
*******1551.6922285.1298391.9078749.8448749.8938749.9098749.964
 80 B1  115 A1  116 A1  117 A1  118 A1  119 A1   81 B1  120 A1                 
*******8750.093****************
 82 B1  121 A1  122 A1  123 A1                                                 
 --------------------------------------------------------------

          Ground-State Mulliken Net Atomic Charges

     Atom                 Charge (a.u.)
  ----------------------------------------
      1 H                     0.191044
      2 C                    -0.470698
      3 C                    -0.327273
      4 H                     0.223588
      5 C                    -0.335004
      6 H                     0.184131
      7 C                    -0.327273
      8 H                     0.223588
      9 C                    -0.470698
     10 H                     0.191044
     11 C                     0.391987
     12 Cl                    0.525565
  ----------------------------------------
  Sum of atomic charges =     0.000000

 -----------------------------------------------------------------
                    Cartesian Multipole Moments
 -----------------------------------------------------------------
    Charge (ESU x 10^10)
                 0.0000
    Dipole Moment (Debye)
         X      -0.0000      Y      -0.0000      Z      -1.9673
       Tot       1.9673
    Quadrupole Moments (Debye-Ang)
        XX     -42.4456     XY      -0.0000     YY     -52.7498
        XZ       0.0000     YZ       0.0000     ZZ     -46.7109
    Octopole Moments (Debye-Ang^2)
       XXX      -0.0000    XXY       0.0000    XYY      -0.0000
       YYY      -0.0000    XXZ      -1.4003    XYZ       0.0000
       YYZ       7.5146    XZZ      -0.0000    YZZ      -0.0000
       ZZZ      -6.2531
    Hexadecapole Moments (Debye-Ang^3)
      XXXX    -275.2716   XXXY       0.0000   XXYY     -69.5895
      XYYY      -0.0000   YYYY     -64.7693   XXXZ       0.0000
      XXYZ       0.0000   XYYZ      -0.0000   YYYZ       0.0000
      XXZZ    -181.0997   XYZZ      -0.0000   YYZZ    -165.9714
      XZZZ       0.0000   YZZZ       0.0000   ZZZZ    -786.9599
 -----------------------------------------------------------------
Archival summary:
1\1\node20\SP\ProcedureUnspecified\BasisUnspecified\l165\krylov\SunOct1412:11:492018SunOct1412:11:492018\0\\#,ProcedureUnspecified,BasisUnspecified,\\0,1\Cl\C,1,1.73093\C,2,1.39121,1,119.398\H,3,1.08039,2,119.798,1,0,0\C,2,1.39121,1,119.398,3,-180,0\H,5,1.08039,2,119.798,1,0,0\C,3,1.39191,2,119.079,1,180,0\H,7,1.08135,3,119.367,2,-180,0\C,5,1.39191,2,119.079,1,-180,0\H,9,1.08135,5,119.367,2,180,0\C,7,1.39245,3,120.451,2,0,0\H,11,1.08085,7,120.132,3,-180,0\\HF=-689.682398\\@

 Total job time:  6123.05s(wall), 41625.53s(cpu) 
 Sun Oct 14 12:11:49 2018

        *************************************************************
        *                                                           *
        *  Thank you very much for using Q-Chem.  Have a nice day.  *
        *                                                           *
        *************************************************************


