annas-macbook-pro-3.local 127.0.0
Q-Chem Developer Version! Running on 127.0.0.*
                  Welcome to Q-Chem
     A Quantum Leap Into The Future Of Chemistry


 Q-Chem 5.1, Q-Chem, Inc., Pleasanton, CA (2018)

 Yihan Shao,  Zhengting Gan,  E. Epifanovsky,  A. T. B. Gilbert,  M. Wormit,  
 J. Kussmann,  A. W. Lange,  A. Behn,  Jia Deng,  Xintian Feng,  D. Ghosh,  
 M. Goldey,  P. R. Horn,  L. D. Jacobson,  I. Kaliman,  T. Kus,  A. Landau,  
 Jie Liu,  E. I. Proynov,  R. M. Richard,  R. P. Steele,  E. J. Sundstrom,  
 H. L. Woodcock III,  P. M. Zimmerman,  D. Zuev,  B. Albrecht,  E. Alguire,  
 S. A. Baeppler,  D. Barton,  Z. Benda,  Y. A. Bernard,  E. J. Berquist,  
 K. B. Bravaya,  H. Burton,  D. Casanova,  Chun-Min Chang,  Yunqing Chen,  
 A. Chien,  K. D. Closser,  M. P. Coons,  S. Coriani,  S. Dasgupta,  
 A. L. Dempwolff,  M. Diedenhofen,  Hainam Do,  R. G. Edgar,  Po-Tung Fang,  
 S. Faraji,  S. Fatehi,  Qingguo Feng,  K. D. Fenk,  J. Fosso-Tande,  
 Qinghui Ge,  A. Ghysels,  G. Gidofalvi,  J. Gomes,  J. Gonthier,  A. Gunina,  
 M. W. D. Hanson-Heine,  P. H. P. Harbach,  A. W. Hauser,  J. E. Herr,  
 E. G. Hohenstein,  Z. C. Holden,  Kerwin Hui,  T.-C. Jagau,  Hyunjun Ji,  
 B. Kaduk,  K. Khistyaev,  Jaehoon Kim,  P. Klunzinger,  K. Koh,  
 D. Kosenkov,  L. Koulias,  T. Kowalczyk,  C. M. Krauter,  A. Kunitsa,  
 Ka Un Lao,  A. Laurent,  K. V. Lawler,  Joonho Lee,  D. Lefrancois,  
 S. Lehtola,  D. S. Levine,  Yi-Pei Li,  You-Sheng Lin,  Fenglai Liu,  
 E. Livshits,  A. Luenser,  P. Manohar,  E. Mansoor,  S. F. Manzer,  
 Shan-Ping Mao,  Yuezhi Mao,  N. Mardirossian,  A. V. Marenich,  
 T. Markovich,  L. A. Martinez-Martinez,  S. A. Maurer,  N. J. Mayhall,  
 S. C. McKenzie,  J.-M. Mewes,  A. F. Morrison,  J. W. Mullinax,  K. Nanda,  
 T. S. Nguyen-Beck,  R. Olivares-Amaya,  J. A. Parkhill,  T. M. Perrine,  
 F. Plasser,  P. Pokhilko,  S. Prager,  A. Prociuk,  E. Ramos,  D. R. Rehn,  
 F. Rob,  M. Schneider,  N. Sergueev,  S. M. Sharada,  S. Sharma,  
 D. W. Small,  T. Stauch,  T. Stein,  Yu-Chuan Su,  A. J. W. Thom,  
 A. Tkatchenko,  T. Tsuchimochi,  N. M. Tubman,  L. Vogt,  M. L. Vidal,  
 O. Vydrov,  M. A. Watson,  J. Wenzel,  M. de Wergifosse,  T. A. Wesolowski,  
 A. White,  J. Witte,  A. Yamada,  Jun Yang,  K. Yao,  S. Yeganeh,  
 S. R. Yost,  Zhi-Qiang You,  A. Zech,  Igor Ying Zhang,  Xing Zhang,  
 Yan Zhao,  Ying Zhu,  B. R. Brooks,  G. K. L. Chan,  C. J. Cramer,  
 M. S. Gordon,  W. J. Hehre,  A. Klamt,  M. W. Schmidt,  C. D. Sherrill,  
 D. G. Truhlar,  A. Aspuru-Guzik,  R. Baer,  A. T. Bell,  N. A. Besley,  
 Jeng-Da Chai,  R. A. DiStasio Jr.,  A. Dreuw,  B. D. Dunietz,  
 T. R. Furlani,  Chao-Ping Hsu,  Yousung Jung,  Jing Kong,  D. S. Lambrecht,  
 WanZhen Liang,  C. Ochsenfeld,  V. A. Rassolov,  L. V. Slipchenko,  
 J. E. Subotnik,  T. Van Voorhis,  J. M. Herbert,  A. I. Krylov,  
 P. M. W. Gill,  M. Head-Gordon

 Contributors to earlier versions of Q-Chem not listed above: 
 R. D. Adamson,  B. Austin,  J. Baker,  G. J. O. Beran,  K. Brandhorst,  
 S. T. Brown,  E. F. C. Byrd,  A. K. Chakraborty,  C.-L. Cheng,  
 Siu Hung Chien,  D. M. Chipman,  D. L. Crittenden,  H. Dachsel,  
 R. J. Doerksen,  A. D. Dutoi,  L. Fusti-Molnar,  W. A. Goddard III,  
 A. Golubeva-Zadorozhnaya,  S. R. Gwaltney,  G. Hawkins,  A. Heyden,  
 S. Hirata,  G. Kedziora,  F. J. Keil,  C. Kelley,  Jihan Kim,  R. A. King,  
 R. Z. Khaliullin,  P. P. Korambath,  W. Kurlancheek,  A. M. Lee,  M. S. Lee,  
 S. V. Levchenko,  Ching Yeh Lin,  D. Liotard,  R. C. Lochan,  I. Lotan,  
 P. E. Maslen,  N. Nair,  D. P. O'Neill,  D. Neuhauser,  E. Neuscamman,  
 C. M. Oana,  R. Olson,  B. Peters,  R. Peverati,  P. A. Pieniazek,  
 Y. M. Rhee,  J. Ritchie,  M. A. Rohrdanz,  E. Rosta,  N. J. Russ,  
 H. F. Schaefer III,  N. E. Schultz,  N. Shenvi,  A. C. Simmonett,  A. Sodt,  
 D. Stuck,  K. S. Thanthiriwatte,  V. Vanovschi,  Tao Wang,  A. Warshel,  
 C. F. Williams,  Q. Wu,  X. Xu,  W. Zhang

 Please cite Q-Chem as follows:
 Y. Shao et al., Mol. Phys. 113, 184-215 (2015)
 DOI: 10.1080/00268976.2014.952696

 Q-Chem 5.1.0 for Mac (Intel) OS X

 Parts of Q-Chem use Armadillo 8.300.2 (Tropical Shenanigans).
 http://arma.sourceforge.net/

 Q-Chem begins on Sun Sep 23 14:09:51 2018  

Annas-MacBook-Pro-3.local
Host: 0

     Scratch files written to /scratch/qchem83093//
Processing $rem in /Users/annakrylov/.qchemrc.
CC_MEMORY  4000

Checking the input file for inconsistencies... 	...done.

--------------------------------------------------------------
User input:
--------------------------------------------------------------
$comment
Optimized Cl-Bz, XAS, from a2 state
$end

$molecule
0 1
 H        -2.1400320233    0.0000000000    0.5090177858
 C        -1.2120583232    0.0000000000   -0.0442490642
 C        -1.2042956497    0.0000000000   -1.4361358281
 H        -2.1437187877    0.0000000000   -1.9716770234
 C         0.0000000000    0.0000000000   -2.1351330277
 H         0.0000000000    0.0000000000   -3.2159870334
 C         1.2042956497    0.0000000000   -1.4361358281
 H         2.1437187877    0.0000000000   -1.9716770234
 C         1.2120583232    0.0000000000   -0.0442490642
 H         2.1400320233    0.0000000000    0.5090177858
 C         0.0000000000    0.0000000000    0.6386615242
 Cl        0.0000000000    0.0000000000    2.3695929760
$end

$rem
   JOB_TYPE  =  SP
   BASIS  =  aug-cc-pVDZ
   METHOD  =  HF
$end

--------------------------------------------------------------
 ----------------------------------------------------------------
             Standard Nuclear Orientation (Angstroms)
    I     Atom           X                Y                Z
 ----------------------------------------------------------------
    1      H      -2.1400320233     0.0000000000     0.3814604176
    2      C      -1.2120583232     0.0000000000    -0.1718064324
    3      C      -1.2042956497     0.0000000000    -1.5636931963
    4      H      -2.1437187877     0.0000000000    -2.0992343916
    5      C      -0.0000000000     0.0000000000    -2.2626903959
    6      H      -0.0000000000     0.0000000000    -3.3435444016
    7      C       1.2042956497     0.0000000000    -1.5636931963
    8      H       2.1437187877     0.0000000000    -2.0992343916
    9      C       1.2120583232    -0.0000000000    -0.1718064324
   10      H       2.1400320233    -0.0000000000     0.3814604176
   11      C       0.0000000000    -0.0000000000     0.5111041560
   12      Cl      0.0000000000    -0.0000000000     2.2420356078
 ----------------------------------------------------------------
 Molecular Point Group                 C2v   NOp =  4
 Largest Abelian Subgroup              C2v   NOp =  4
 Nuclear Repulsion Energy =   316.4076139427 hartrees
 There are       29 alpha and       29 beta electrons
 Requested basis set is aug-cc-pVDZ
 There are 90 shells and 210 basis functions

 Total QAlloc Memory Limit   2000 MB
 Mega-Array Size       188 MB
 MEM_STATIC part       192 MB

                       Distance Matrix (Angstroms)
             H (  1)   C (  2)   C (  3)   H (  4)   C (  5)   H (  6)
   C (  2)  1.080389
   C (  3)  2.158524  1.391908
   H (  4)  2.480698  2.140787  1.081351
   C (  5)  3.401657  2.416791  1.392453  2.149941
   H (  6)  4.295975  3.395439  2.148999  2.478677  1.080854
   C (  7)  3.868869  2.788569  2.408591  3.390576  1.392453  2.148999
   H (  8)  4.950189  3.869912  3.390576  4.287438  2.149941  2.478677
   C (  9)  3.397442  2.424117  2.788569  3.869912  2.416791  3.395439
   H ( 10)  4.280064  3.397442  3.868869  4.950189  3.401657  4.295975
   C ( 11)  2.143955  1.391205  2.398981  3.377780  2.773795  3.854649
   Cl( 12)  2.835750  2.701059  3.991729  4.841710  4.504726  5.585580
             C (  7)   H (  8)   C (  9)   H ( 10)   C ( 11)
   H (  8)  1.081351
   C (  9)  1.391908  2.140787
   H ( 10)  2.158524  2.480698  1.080389
   C ( 11)  2.398981  3.377780  1.391205  2.143955
   Cl( 12)  3.991729  4.841710  2.701059  2.835750  1.730931

 A cutoff of  1.0D-08 yielded   3972 shell pairs
 There are     21830 function pairs (     24892 Cartesian)
 Smallest overlap matrix eigenvalue = 2.25E-06

 Q-Chem warning in module stvman/mkSTV.C, line 295:

 Overlap eigenvalue is smaller than square root of threshold


 Scale SEOQF with 1.000000e-01/1.000000e-01/1.000000e-01

 Standard Electronic Orientation quadrupole field applied
 Nucleus-field energy     =    -0.0000000161 hartrees
 Guess from superposition of atomic densities
 Warning:  Energy on first SCF cycle will be non-variational
 SAD guess density has 58.000000 electrons

 -----------------------------------------------------------------------
  General SCF calculation program by
  Eric Jon Sundstrom, Paul Horn, Yuezhi Mao, Dmitri Zuev, Alec White,
  David Stuck, Shaama M.S., Shane Yost, Joonho Lee, David Small,
  Daniel Levine, Susi Lehtola, Hugh Burton, Evgeny Epifanovsky
 -----------------------------------------------------------------------
 Hartree-Fock
 A restricted SCF calculation will be
 performed using DIIS
 SCF converges when DIIS error is below 1.0e-05
 ---------------------------------------
  Cycle       Energy         DIIS error
 ---------------------------------------
    1    -692.4629182217      4.44e-02  
    2    -689.5698485792      3.11e-03  
    3    -689.6378440712      1.37e-03  
    4    -689.6477236567      6.08e-04  
    5    -689.6503818339      1.09e-04  
    6    -689.6504746836      3.29e-05  
    7    -689.6504890538      1.18e-05  
    8    -689.6504915492      5.01e-06  Convergence criterion met
 ---------------------------------------
 SCF time:   CPU 64.01s  wall 64.00s 
 SCF   energy in the final basis set =     -689.6504915492

 --------------------------------------------------------------
             Orbital Energies (a.u.) and Symmetries
 --------------------------------------------------------------

 Alpha MOs, Restricted
 -- Occupied --                  
-104.84  -11.31  -11.26  -11.26  -11.26  -11.26  -11.25  -10.57
  1 A1    2 A1    3 A1    1 B1    4 A1    2 B1    5 A1    6 A1                 
 -8.034  -8.031  -8.031  -1.197  -1.125  -1.036  -1.001  -0.850
  7 A1    3 B1    1 B2    8 A1    9 A1    4 B1   10 A1    5 B1                 
 -0.823  -0.714  -0.651  -0.650  -0.606  -0.592  -0.546  -0.518
 11 A1   12 A1   13 A1    6 B1    7 B1   14 A1    2 B2    8 B1                 
 -0.514  -0.471  -0.456  -0.353  -0.337
 15 A1    3 B2    9 B1    1 A2    4 B2                                         
 -- Virtual --                   
  0.033   0.040   0.046   0.059   0.063   0.093   0.096   0.098
 16 A1   10 B1   17 A1   11 B1   18 A1    5 B2    2 A2   19 A1                 
  0.118   0.119   0.132   0.138   0.144   0.144   0.146   0.149
  6 B2   20 A1   12 B1    3 A2   21 A1   13 B1    7 B2   22 A1                 
  0.160   0.162   0.172   0.179   0.179   0.181   0.192   0.192
 23 A1   14 B1   24 A1   15 B1    8 B2   25 A1   16 B1    4 A2                 
  0.202   0.205   0.218   0.222   0.264   0.268   0.288   0.297
  9 B2   10 B2   26 A1   17 B1   27 A1   18 B1   28 A1   29 A1                 
  0.303   0.325   0.327   0.333   0.334   0.354   0.356   0.359
 19 B1   20 B1   30 A1   11 B2   31 A1   32 A1   12 B2   21 B1                 
  0.380   0.382   0.401   0.404   0.416   0.416   0.429   0.435
 33 A1   22 B1   34 A1   23 B1   35 A1    5 A2   36 A1   24 B1                 
  0.446   0.463   0.468   0.499   0.512   0.536   0.561   0.567
 13 B2    6 A2   25 B1    7 A2   37 A1   14 B2   38 A1   26 B1                 
  0.571   0.579   0.581   0.585   0.599   0.613   0.640   0.641
 39 A1   27 B1   40 A1   15 B2    8 A2   41 A1   42 A1   16 B2                 
  0.642   0.668   0.671   0.674   0.677   0.683   0.703   0.713
 28 B1   43 A1   29 B1   44 A1   17 B2   30 B1   45 A1   31 B1                 
  0.733   0.735   0.762   0.763   0.766   0.771   0.796   0.807
 46 A1    9 A2   47 A1   10 A2   32 B1   18 B2   33 B1   48 A1                 
  0.839   0.840   0.855   0.858   0.882   0.900   0.902   0.915
 34 B1   19 B2   49 A1   35 B1   36 B1   50 A1   20 B2   11 A2                 
  0.931   0.940   0.946   0.966   0.968   0.978   0.979   0.988
 12 A2   21 B2   22 B2   23 B2   51 A1   52 A1   37 B1   13 A2                 
  1.006   1.037   1.066   1.093   1.123   1.132   1.147   1.168
 53 A1   54 A1   14 A2   55 A1   24 B2   38 B1   39 B1   40 B1                 
  1.199   1.213   1.276   1.345   1.414   1.421   1.431   1.472
 15 A2   25 B2   56 A1   41 B1   26 B2   16 A2   57 A1   58 A1                 
  1.474   1.477   1.480   1.482   1.520   1.546   1.552   1.555
 17 A2   42 B1   59 A1   27 B2   43 B1   60 A1   44 B1   61 A1                 
  1.600   1.601   1.608   1.624   1.640   1.648   1.649   1.659
 28 B2   45 B1   62 A1   63 A1   64 A1   46 B1   65 A1   47 B1                 
  1.698   1.706   1.708   1.740   1.774   1.776   1.825   1.878
 18 A2   19 A2   29 B2   30 B2   48 B1   66 A1   49 B1   67 A1                 
  1.885   1.898   1.931   1.933   1.941   1.954   1.956   2.016
 20 A2   68 A1   31 B2   50 B1   69 A1   51 B1   70 A1   32 B2                 
  2.036   2.043   2.095   2.111   2.113   2.126   2.185   2.194
 71 A1   52 B1   33 B2   53 B1   21 A2   72 A1   34 B2   22 A2                 
  2.198   2.241   2.270   2.275   2.288   2.333   2.335   2.364
 73 A1   54 B1   74 A1   55 B1   35 B2   56 B1   75 A1   23 A2                 
  2.381   2.413   2.443   2.608   2.629   2.709   2.784   2.801
 76 A1   57 B1   77 A1   24 A2   36 B2   58 B1   78 A1   79 A1                 
  2.805   2.914   2.926   2.965   3.109   3.128   3.171   3.182
 59 B1   60 B1   80 A1   81 A1   82 A1   61 B1   62 B1   83 A1                 
  3.334   3.429   3.590   3.819   4.570
 63 B1   84 A1   64 B1   85 A1   86 A1                                         

 Beta MOs, Restricted
 -- Occupied --                  
-104.84  -11.31  -11.26  -11.26  -11.26  -11.26  -11.25  -10.57
  1 A1    2 A1    3 A1    1 B1    4 A1    2 B1    5 A1    6 A1                 
 -8.034  -8.031  -8.031  -1.197  -1.125  -1.036  -1.001  -0.850
  7 A1    3 B1    1 B2    8 A1    9 A1    4 B1   10 A1    5 B1                 
 -0.823  -0.714  -0.651  -0.650  -0.606  -0.592  -0.546  -0.518
 11 A1   12 A1   13 A1    6 B1    7 B1   14 A1    2 B2    8 B1                 
 -0.514  -0.471  -0.456  -0.353  -0.337
 15 A1    3 B2    9 B1    1 A2    4 B2                                         
 -- Virtual --                   
  0.033   0.040   0.046   0.059   0.063   0.093   0.096   0.098
 16 A1   10 B1   17 A1   11 B1   18 A1    5 B2    2 A2   19 A1                 
  0.118   0.119   0.132   0.138   0.144   0.144   0.146   0.149
  6 B2   20 A1   12 B1    3 A2   21 A1   13 B1    7 B2   22 A1                 
  0.160   0.162   0.172   0.179   0.179   0.181   0.192   0.192
 23 A1   14 B1   24 A1   15 B1    8 B2   25 A1   16 B1    4 A2                 
  0.202   0.205   0.218   0.222   0.264   0.268   0.288   0.297
  9 B2   10 B2   26 A1   17 B1   27 A1   18 B1   28 A1   29 A1                 
  0.303   0.325   0.327   0.333   0.334   0.354   0.356   0.359
 19 B1   20 B1   30 A1   11 B2   31 A1   32 A1   12 B2   21 B1                 
  0.380   0.382   0.401   0.404   0.416   0.416   0.429   0.435
 33 A1   22 B1   34 A1   23 B1   35 A1    5 A2   36 A1   24 B1                 
  0.446   0.463   0.468   0.499   0.512   0.536   0.561   0.567
 13 B2    6 A2   25 B1    7 A2   37 A1   14 B2   38 A1   26 B1                 
  0.571   0.579   0.581   0.585   0.599   0.613   0.640   0.641
 39 A1   27 B1   40 A1   15 B2    8 A2   41 A1   42 A1   16 B2                 
  0.642   0.668   0.671   0.674   0.677   0.683   0.703   0.713
 28 B1   43 A1   29 B1   44 A1   17 B2   30 B1   45 A1   31 B1                 
  0.733   0.735   0.762   0.763   0.766   0.771   0.796   0.807
 46 A1    9 A2   47 A1   10 A2   32 B1   18 B2   33 B1   48 A1                 
  0.839   0.840   0.855   0.858   0.882   0.900   0.902   0.915
 34 B1   19 B2   49 A1   35 B1   36 B1   50 A1   20 B2   11 A2                 
  0.931   0.940   0.946   0.966   0.968   0.978   0.979   0.988
 12 A2   21 B2   22 B2   23 B2   51 A1   52 A1   37 B1   13 A2                 
  1.006   1.037   1.066   1.093   1.123   1.132   1.147   1.168
 53 A1   54 A1   14 A2   55 A1   24 B2   38 B1   39 B1   40 B1                 
  1.199   1.213   1.276   1.345   1.414   1.421   1.431   1.472
 15 A2   25 B2   56 A1   41 B1   26 B2   16 A2   57 A1   58 A1                 
  1.474   1.477   1.480   1.482   1.520   1.546   1.552   1.555
 17 A2   42 B1   59 A1   27 B2   43 B1   60 A1   44 B1   61 A1                 
  1.600   1.601   1.608   1.624   1.640   1.648   1.649   1.659
 28 B2   45 B1   62 A1   63 A1   64 A1   46 B1   65 A1   47 B1                 
  1.698   1.706   1.708   1.740   1.774   1.776   1.825   1.878
 18 A2   19 A2   29 B2   30 B2   48 B1   66 A1   49 B1   67 A1                 
  1.885   1.898   1.931   1.933   1.941   1.954   1.956   2.016
 20 A2   68 A1   31 B2   50 B1   69 A1   51 B1   70 A1   32 B2                 
  2.036   2.043   2.095   2.111   2.113   2.126   2.185   2.194
 71 A1   52 B1   33 B2   53 B1   21 A2   72 A1   34 B2   22 A2                 
  2.198   2.241   2.270   2.275   2.288   2.333   2.335   2.364
 73 A1   54 B1   74 A1   55 B1   35 B2   56 B1   75 A1   23 A2                 
  2.381   2.413   2.443   2.608   2.629   2.709   2.784   2.801
 76 A1   57 B1   77 A1   24 A2   36 B2   58 B1   78 A1   79 A1                 
  2.805   2.914   2.926   2.965   3.109   3.128   3.171   3.182
 59 B1   60 B1   80 A1   81 A1   82 A1   61 B1   62 B1   83 A1                 
  3.334   3.429   3.590   3.819   4.570
 63 B1   84 A1   64 B1   85 A1   86 A1                                         
 --------------------------------------------------------------

          Ground-State Mulliken Net Atomic Charges

     Atom                 Charge (a.u.)
  ----------------------------------------
      1 H                    -0.380076
      2 C                     0.347544
      3 C                     0.859008
      4 H                    -0.436730
      5 C                     0.180291
      6 H                    -0.435546
      7 C                     0.859008
      8 H                    -0.436730
      9 C                     0.347544
     10 H                    -0.380076
     11 C                    -0.150482
     12 Cl                   -0.373754
  ----------------------------------------
  Sum of atomic charges =     0.000000

 -----------------------------------------------------------------
                    Cartesian Multipole Moments
 -----------------------------------------------------------------
    Charge (ESU x 10^10)
                 0.0000
    Dipole Moment (Debye)
         X      -0.0000      Y       0.0000      Z      -1.9372
       Tot       1.9372
    Quadrupole Moments (Debye-Ang)
        XX     -42.4720     XY       0.0000     YY     -52.7242
        XZ       0.0000     YZ       0.0000     ZZ     -46.6101
    Octopole Moments (Debye-Ang^2)
       XXX      -0.0000    XXY      -0.0000    XYY      -0.0000
       YYY      -0.0000    XXZ      -1.1993    XYZ      -0.0000
       YYZ       7.5491    XZZ      -0.0000    YZZ       0.0000
       ZZZ      -5.2899
    Hexadecapole Moments (Debye-Ang^3)
      XXXX    -275.7953   XXXY      -0.0000   XXYY     -69.1459
      XYYY       0.0000   YYYY     -63.6690   XXXZ       0.0000
      XXYZ      -0.0000   XYYZ       0.0000   YYYZ       0.0000
      XXZZ    -180.9879   XYZZ       0.0000   YYZZ    -165.1737
      XZZZ       0.0000   YZZZ       0.0000   ZZZZ    -785.7643
 -----------------------------------------------------------------
Archival summary:
1\1\Annas-MacBook-Pro-3.local\SP\HF\BasisUnspecified\l165\SunSep2314:10:562018SunSep2314:10:562018\0\\#,HF,BasisUnspecified,\\0,1\Cl\C,1,1.73093\C,2,1.39121,1,119.398\H,3,1.08039,2,119.798,1,0,0\C,2,1.39121,1,119.398,3,-180,0\H,5,1.08039,2,119.798,1,0,0\C,3,1.39191,2,119.079,1,-180,0\H,7,1.08135,3,119.367,2,180,0\C,5,1.39191,2,119.079,1,180,0\H,9,1.08135,5,119.367,2,-180,0\C,7,1.39245,3,120.451,2,0,0\H,11,1.08085,7,120.132,3,-180,0\\HF=-689.650492\\@

 Total job time:  64.57s(wall), 64.26s(cpu) 
 Sun Sep 23 14:10:56 2018

        *************************************************************
        *                                                           *
        *  Thank you very much for using Q-Chem.  Have a nice day.  *
        *                                                           *
        *************************************************************


 
User input: 2 of 2 
 
annas-macbook-pro-3.local 127.0.0
Q-Chem Developer Version! Running on 127.0.0.*
                  Welcome to Q-Chem
     A Quantum Leap Into The Future Of Chemistry


 Q-Chem 5.1, Q-Chem, Inc., Pleasanton, CA (2018)

 Yihan Shao,  Zhengting Gan,  E. Epifanovsky,  A. T. B. Gilbert,  M. Wormit,  
 J. Kussmann,  A. W. Lange,  A. Behn,  Jia Deng,  Xintian Feng,  D. Ghosh,  
 M. Goldey,  P. R. Horn,  L. D. Jacobson,  I. Kaliman,  T. Kus,  A. Landau,  
 Jie Liu,  E. I. Proynov,  R. M. Richard,  R. P. Steele,  E. J. Sundstrom,  
 H. L. Woodcock III,  P. M. Zimmerman,  D. Zuev,  B. Albrecht,  E. Alguire,  
 S. A. Baeppler,  D. Barton,  Z. Benda,  Y. A. Bernard,  E. J. Berquist,  
 K. B. Bravaya,  H. Burton,  D. Casanova,  Chun-Min Chang,  Yunqing Chen,  
 A. Chien,  K. D. Closser,  M. P. Coons,  S. Coriani,  S. Dasgupta,  
 A. L. Dempwolff,  M. Diedenhofen,  Hainam Do,  R. G. Edgar,  Po-Tung Fang,  
 S. Faraji,  S. Fatehi,  Qingguo Feng,  K. D. Fenk,  J. Fosso-Tande,  
 Qinghui Ge,  A. Ghysels,  G. Gidofalvi,  J. Gomes,  J. Gonthier,  A. Gunina,  
 M. W. D. Hanson-Heine,  P. H. P. Harbach,  A. W. Hauser,  J. E. Herr,  
 E. G. Hohenstein,  Z. C. Holden,  Kerwin Hui,  T.-C. Jagau,  Hyunjun Ji,  
 B. Kaduk,  K. Khistyaev,  Jaehoon Kim,  P. Klunzinger,  K. Koh,  
 D. Kosenkov,  L. Koulias,  T. Kowalczyk,  C. M. Krauter,  A. Kunitsa,  
 Ka Un Lao,  A. Laurent,  K. V. Lawler,  Joonho Lee,  D. Lefrancois,  
 S. Lehtola,  D. S. Levine,  Yi-Pei Li,  You-Sheng Lin,  Fenglai Liu,  
 E. Livshits,  A. Luenser,  P. Manohar,  E. Mansoor,  S. F. Manzer,  
 Shan-Ping Mao,  Yuezhi Mao,  N. Mardirossian,  A. V. Marenich,  
 T. Markovich,  L. A. Martinez-Martinez,  S. A. Maurer,  N. J. Mayhall,  
 S. C. McKenzie,  J.-M. Mewes,  A. F. Morrison,  J. W. Mullinax,  K. Nanda,  
 T. S. Nguyen-Beck,  R. Olivares-Amaya,  J. A. Parkhill,  T. M. Perrine,  
 F. Plasser,  P. Pokhilko,  S. Prager,  A. Prociuk,  E. Ramos,  D. R. Rehn,  
 F. Rob,  M. Schneider,  N. Sergueev,  S. M. Sharada,  S. Sharma,  
 D. W. Small,  T. Stauch,  T. Stein,  Yu-Chuan Su,  A. J. W. Thom,  
 A. Tkatchenko,  T. Tsuchimochi,  N. M. Tubman,  L. Vogt,  M. L. Vidal,  
 O. Vydrov,  M. A. Watson,  J. Wenzel,  M. de Wergifosse,  T. A. Wesolowski,  
 A. White,  J. Witte,  A. Yamada,  Jun Yang,  K. Yao,  S. Yeganeh,  
 S. R. Yost,  Zhi-Qiang You,  A. Zech,  Igor Ying Zhang,  Xing Zhang,  
 Yan Zhao,  Ying Zhu,  B. R. Brooks,  G. K. L. Chan,  C. J. Cramer,  
 M. S. Gordon,  W. J. Hehre,  A. Klamt,  M. W. Schmidt,  C. D. Sherrill,  
 D. G. Truhlar,  A. Aspuru-Guzik,  R. Baer,  A. T. Bell,  N. A. Besley,  
 Jeng-Da Chai,  R. A. DiStasio Jr.,  A. Dreuw,  B. D. Dunietz,  
 T. R. Furlani,  Chao-Ping Hsu,  Yousung Jung,  Jing Kong,  D. S. Lambrecht,  
 WanZhen Liang,  C. Ochsenfeld,  V. A. Rassolov,  L. V. Slipchenko,  
 J. E. Subotnik,  T. Van Voorhis,  J. M. Herbert,  A. I. Krylov,  
 P. M. W. Gill,  M. Head-Gordon

 Contributors to earlier versions of Q-Chem not listed above: 
 R. D. Adamson,  B. Austin,  J. Baker,  G. J. O. Beran,  K. Brandhorst,  
 S. T. Brown,  E. F. C. Byrd,  A. K. Chakraborty,  C.-L. Cheng,  
 Siu Hung Chien,  D. M. Chipman,  D. L. Crittenden,  H. Dachsel,  
 R. J. Doerksen,  A. D. Dutoi,  L. Fusti-Molnar,  W. A. Goddard III,  
 A. Golubeva-Zadorozhnaya,  S. R. Gwaltney,  G. Hawkins,  A. Heyden,  
 S. Hirata,  G. Kedziora,  F. J. Keil,  C. Kelley,  Jihan Kim,  R. A. King,  
 R. Z. Khaliullin,  P. P. Korambath,  W. Kurlancheek,  A. M. Lee,  M. S. Lee,  
 S. V. Levchenko,  Ching Yeh Lin,  D. Liotard,  R. C. Lochan,  I. Lotan,  
 P. E. Maslen,  N. Nair,  D. P. O'Neill,  D. Neuhauser,  E. Neuscamman,  
 C. M. Oana,  R. Olson,  B. Peters,  R. Peverati,  P. A. Pieniazek,  
 Y. M. Rhee,  J. Ritchie,  M. A. Rohrdanz,  E. Rosta,  N. J. Russ,  
 H. F. Schaefer III,  N. E. Schultz,  N. Shenvi,  A. C. Simmonett,  A. Sodt,  
 D. Stuck,  K. S. Thanthiriwatte,  V. Vanovschi,  Tao Wang,  A. Warshel,  
 C. F. Williams,  Q. Wu,  X. Xu,  W. Zhang

 Please cite Q-Chem as follows:
 Y. Shao et al., Mol. Phys. 113, 184-215 (2015)
 DOI: 10.1080/00268976.2014.952696

 Q-Chem 5.1.0 for Mac (Intel) OS X

 Parts of Q-Chem use Armadillo 8.300.2 (Tropical Shenanigans).
 http://arma.sourceforge.net/

 Q-Chem begins on Sun Sep 23 14:10:56 2018  

Annas-MacBook-Pro-3.local
Host: 0

     Scratch files written to /scratch/qchem83093//
Processing $rem in /Users/annakrylov/.qchemrc.
CC_MEMORY  4000
Core orbitals will be frozen

Checking the input file for inconsistencies... 	...done.

--------------------------------------------------------------
User input:
--------------------------------------------------------------
$molecule
+1 2
 H        -2.1400320233    0.0000000000    0.5090177858
 C        -1.2120583232    0.0000000000   -0.0442490642
 C        -1.2042956497    0.0000000000   -1.4361358281
 H        -2.1437187877    0.0000000000   -1.9716770234
 C         0.0000000000    0.0000000000   -2.1351330277
 H         0.0000000000    0.0000000000   -3.2159870334
 C         1.2042956497    0.0000000000   -1.4361358281
 H         2.1437187877    0.0000000000   -1.9716770234
 C         1.2120583232    0.0000000000   -0.0442490642
 H         2.1400320233    0.0000000000    0.5090177858
 C         0.0000000000    0.0000000000    0.6386615242
 Cl        0.0000000000    0.0000000000    2.3695929760
$end


$rem
   JOB_TYPE  =  SP
   BASIS  =  aug-cc-pVDZ
   SCF_GUESS = read
   MOM_START = 1
   METHOD  =  EOM-CCSD
   CVS_EE_STATES = [5,0,5,5]   bright transitions only
!   CC_MEMORY = 80000
   cc_trans_prop = 1
$end

$occupied
1:29
1:27 29 
$end


--------------------------------------------------------------
 ----------------------------------------------------------------
             Standard Nuclear Orientation (Angstroms)
    I     Atom           X                Y                Z
 ----------------------------------------------------------------
    1      H      -2.1400320233     0.0000000000     0.3814604176
    2      C      -1.2120583232     0.0000000000    -0.1718064324
    3      C      -1.2042956497     0.0000000000    -1.5636931963
    4      H      -2.1437187877     0.0000000000    -2.0992343916
    5      C      -0.0000000000     0.0000000000    -2.2626903959
    6      H      -0.0000000000     0.0000000000    -3.3435444016
    7      C       1.2042956497     0.0000000000    -1.5636931963
    8      H       2.1437187877     0.0000000000    -2.0992343916
    9      C       1.2120583232    -0.0000000000    -0.1718064324
   10      H       2.1400320233    -0.0000000000     0.3814604176
   11      C       0.0000000000    -0.0000000000     0.5111041560
   12      Cl      0.0000000000    -0.0000000000     2.2420356078
 ----------------------------------------------------------------
 Molecular Point Group                 C2v   NOp =  4
 Largest Abelian Subgroup              C2v   NOp =  4
 Nuclear Repulsion Energy =   316.4076139427 hartrees
 There are       29 alpha and       28 beta electrons
 Requested basis set is aug-cc-pVDZ
 There are 90 shells and 210 basis functions
MEM_TOTAL is adjusted to CC_MEMORY + MEM_STATIC!
 Total memory of 4192MB is distributed as follows: 
   QALLOC including MEM_STATIC uses 192MB
   MEM_STATIC is set to 192MB
   CCMAN JOB total memory use is  4000MB
 Warning: actual memory use might exceed 4192MB

 Total QAlloc Memory Limit    192 MB
 Mega-Array Size       188 MB
 MEM_STATIC part       192 MB

                       Distance Matrix (Angstroms)
             H (  1)   C (  2)   C (  3)   H (  4)   C (  5)   H (  6)
   C (  2)  1.080389
   C (  3)  2.158524  1.391908
   H (  4)  2.480698  2.140787  1.081351
   C (  5)  3.401657  2.416791  1.392453  2.149941
   H (  6)  4.295975  3.395439  2.148999  2.478677  1.080854
   C (  7)  3.868869  2.788569  2.408591  3.390576  1.392453  2.148999
   H (  8)  4.950189  3.869912  3.390576  4.287438  2.149941  2.478677
   C (  9)  3.397442  2.424117  2.788569  3.869912  2.416791  3.395439
   H ( 10)  4.280064  3.397442  3.868869  4.950189  3.401657  4.295975
   C ( 11)  2.143955  1.391205  2.398981  3.377780  2.773795  3.854649
   Cl( 12)  2.835750  2.701059  3.991729  4.841710  4.504726  5.585580
             C (  7)   H (  8)   C (  9)   H ( 10)   C ( 11)
   H (  8)  1.081351
   C (  9)  1.391908  2.140787
   H ( 10)  2.158524  2.480698  1.080389
   C ( 11)  2.398981  3.377780  1.391205  2.143955
   Cl( 12)  3.991729  4.841710  2.701059  2.835750  1.730931

 A cutoff of  1.0D-14 yielded   4083 shell pairs
 There are     22321 function pairs (     25433 Cartesian)
 Smallest overlap matrix eigenvalue = 2.25E-06

 Scale SEOQF with 1.000000e-01/1.000000e-01/1.000000e-01

 Standard Electronic Orientation quadrupole field applied
 Nucleus-field energy     =    -0.0000000161 hartrees
 Guess MOs from SCF MO coefficient file
 Reading MOs from coefficient file
 User-specified occupied guess orbitals will be used
   Alpha:
   1   2   3   4   5   6   7   8   9  10  11  12  13  14  15
  16  17  18  19  20  21  22  23  24  25  26  27  28  29
 Reading MOs from coefficient file
   Beta:
   1   2   3   4   5   6   7   8   9  10  11  12  13  14  15
  16  17  18  19  20  21  22  23  24  25  26  27  29
 An unrestricted Hartree-Fock SCF calculation will be
 performed using Pulay DIIS extrapolation
 SCF converges when DIIS error is below 1.0E-08
 MOM overlap:    28.9693194995 / 29
 MOM overlap:    27.9778451238 / 28
 ---------------------------------------
  Cycle       Energy         DIIS Error
 ---------------------------------------
    1    -689.2976431188      2.09E-03
 MOM overlap:    28.9981711298 / 29
 MOM overlap:    27.9964930985 / 28
    2    -689.3337948702      1.03E-03
 MOM overlap:    28.9993494585 / 29
 MOM overlap:    27.9986433307 / 28
    3    -689.3424644596      1.27E-04
 MOM overlap:    28.9996671625 / 29
 MOM overlap:    27.9995055132 / 28
    4    -689.3447776119      6.28E-05
 MOM overlap:    28.9997367463 / 29
 MOM overlap:    27.9996032595 / 28
    5    -689.3458134681      2.63E-05
 MOM overlap:    28.9997428300 / 29
 MOM overlap:    27.9996763243 / 28
    6    -689.3464514970      1.53E-05
 MOM overlap:    28.9998778938 / 29
 MOM overlap:    27.9998636909 / 28
    7    -689.3468071247      7.76E-06
 MOM overlap:    28.9999697839 / 29
 MOM overlap:    27.9999736322 / 28
    8    -689.3469159981      4.45E-06
 MOM overlap:    28.9999922891 / 29
 MOM overlap:    27.9999960869 / 28
    9    -689.3469347741      3.46E-06
 MOM overlap:    28.9999724387 / 29
 MOM overlap:    27.9999883056 / 28
   10    -689.3469402191      2.93E-06
 MOM overlap:    28.9999219969 / 29
 MOM overlap:    27.9999696381 / 28
   11    -689.3469472458      2.09E-06
 MOM overlap:    28.9999969824 / 29
 MOM overlap:    27.9999987683 / 28
   12    -689.3469533031      5.27E-07
 MOM overlap:    28.9999998523 / 29
 MOM overlap:    27.9999998653 / 28
   13    -689.3469539307      1.38E-07
 MOM overlap:    28.9999999312 / 29
 MOM overlap:    27.9999999299 / 28
   14    -689.3469541947      7.12E-08
 MOM overlap:    28.9999999248 / 29
 MOM overlap:    27.9999999398 / 28
   15    -689.3469543084      3.67E-08
 MOM overlap:    28.9999999939 / 29
 MOM overlap:    27.9999999947 / 28
   16    -689.3469543467      1.36E-08
 MOM overlap:    28.9999999978 / 29
 MOM overlap:    27.9999999986 / 28
   17    -689.3469543621      8.09E-09 Convergence criterion met
 ---------------------------------------
 <S^2> = 0.8741
 SCF time:  CPU 192.66 s  wall 194.49 s
 SCF   energy in the final basis set = -689.34695436
 Total energy in the final basis set = -689.34695436


 ------------------------------------------------------------------------------

   CCMAN2: suite of methods based on coupled cluster
           and equation of motion theories.

   Components:
   * libvmm-1.3-trunk
     by Evgeny Epifanovsky, Ilya Kaliman.
   * libtensor-2.5-trunk
     by Evgeny Epifanovsky, Michael Wormit, Dmitry Zuev, Sam Manzer, 
        Ilya Kaliman.
   * libcc-2.5-trunk
     by Evgeny Epifanovsky, Arik Landau, Tomasz Kus, Kirill Khistyaev, 
        Dmitry Zuev, Prashant Manohar, Xintian Feng, Anna Krylov, 
        Matthew Goldey, Alec White, Thomas Jagau, Kaushik Nanda, 
        Anastasia Gunina, Alexander Kunitsa, Joonho Lee.

   CCMAN original authors:
   Anna I. Krylov, C. David Sherrill, Steven R. Gwaltney,
   Edward F. C. Byrd (2000)
   Sergey V. Levchenko, Lyudmila V. Slipchenko, Tao Wang,
   Ana-Maria C. Cristian (2003)
   Piotr A. Pieniazek, C. Melania Oana, Evgeny Epifanovsky (2007)
   Prashant Manohar (2009)

 ------------------------------------------------------------------------------


 Calculation will run on 1 core with 4000MB of RAM.


 Alpha MOs, Unrestricted
 -- Occupied --                  
-105.01  -11.51  -11.51  -11.51  -11.51  -11.50  -11.45  -10.73
  1 A1    1 B1    2 A1    3 A1    2 B1    4 A1    5 A1    6 A1                 
 -8.203  -8.198  -8.198  -1.424  -1.320  -1.295  -1.208  -1.080
  7 A1    3 B1    1 B2    8 A1    9 A1    4 B1   10 A1    5 B1                 
 -1.049  -0.932  -0.880  -0.868  -0.840  -0.787  -0.776  -0.737
 11 A1   12 A1    6 B1   13 A1    7 B1   14 A1    2 B2    8 B1                 
 -0.721  -0.654  -0.635  -0.625  -0.535
 15 A1    3 B2    1 A2    9 B1    4 B2                                         
 -- Virtual --                   
 -0.142  -0.088  -0.087  -0.071  -0.061  -0.042  -0.042  -0.035
  2 A2    5 B2   16 A1   10 B1   17 A1   11 B1   18 A1    6 B2                 
 -0.023  -0.010  -0.007   0.009   0.011   0.015   0.022   0.027
 19 A1   20 A1    3 A2    7 B2   12 B1   21 A1   13 B1   22 A1                 
  0.030   0.033   0.043   0.045   0.045   0.055   0.060   0.066
 23 A1   14 B1    8 B2   24 A1    4 A2   15 B1   25 A1    9 B2                 
  0.074   0.081   0.082   0.103   0.118   0.129   0.141   0.149
 16 B1   10 B2   26 A1   17 B1   27 A1   11 B2   28 A1   18 B1                 
  0.149   0.160   0.168   0.180   0.181   0.185   0.187   0.202
 29 A1   19 B1   30 A1   20 B1   12 B2   31 A1   21 B1   32 A1                 
  0.218   0.237   0.242   0.244   0.249   0.256   0.270   0.277
 22 B1   33 A1   34 A1   23 B1    5 A2   35 A1   24 B1   36 A1                 
  0.286   0.290   0.294   0.335   0.336   0.370   0.374   0.386
 13 B2    6 A2   25 B1    7 A2   37 A1   14 B2   38 A1   26 B1                 
  0.392   0.399   0.401   0.410   0.413   0.449   0.462   0.467
 39 A1   40 A1   15 B2    8 A2   27 B1   41 A1   28 B1   16 B2                 
  0.472   0.483   0.492   0.496   0.509   0.511   0.531   0.539
 42 A1   17 B2   43 A1   29 B1   44 A1   30 B1   45 A1   31 B1                 
  0.542   0.558   0.568   0.595   0.597   0.597   0.615   0.630
  9 A2   46 A1   10 A2   18 B2   32 B1   47 A1   33 B1   48 A1                 
  0.635   0.648   0.681   0.684   0.695   0.702   0.712   0.722
 19 B2   34 B1   35 B1   49 A1   36 B1   11 A2   20 B2   12 A2                 
  0.734   0.752   0.765   0.776   0.778   0.792   0.792   0.797
 50 A1   21 B2   22 B2   23 B2   51 A1   13 A2   37 B1   52 A1                 
  0.806   0.832   0.886   0.902   0.943   0.959   0.968   0.980
 53 A1   54 A1   14 A2   55 A1   24 B2   38 B1   39 B1   15 A2                 
  0.987   1.014   1.092   1.144   1.204   1.240   1.245   1.274
 40 B1   25 B2   56 A1   41 B1   16 A2   26 B2   57 A1   27 B2                 
  1.297   1.298   1.304   1.312   1.321   1.337   1.344   1.363
 42 B1   58 A1   17 A2   59 A1   43 B1   44 B1   60 A1   61 A1                 
  1.392   1.397   1.402   1.424   1.444   1.447   1.458   1.459
 28 B2   45 B1   62 A1   63 A1   64 A1   46 B1   65 A1   47 B1                 
  1.469   1.476   1.486   1.537   1.563   1.568   1.611   1.665
 29 B2   18 A2   19 A2   30 B2   48 B1   66 A1   49 B1   20 A2                 
  1.667   1.696   1.720   1.730   1.739   1.752   1.755   1.816
 67 A1   68 A1   50 B1   31 B2   69 A1   51 B1   70 A1   32 B2                 
  1.832   1.837   1.891   1.897   1.898   1.925   1.947   1.975
 71 A1   52 B1   33 B2   21 A2   53 B1   72 A1   34 B2   22 A2                 
  1.992   2.018   2.061   2.071   2.077   2.132   2.136   2.139
 73 A1   54 B1   74 A1   55 B1   35 B2   56 B1   75 A1   23 A2                 
  2.192   2.204   2.231   2.378   2.408   2.497   2.573   2.592
 76 A1   57 B1   77 A1   24 A2   36 B2   58 B1   78 A1   59 B1                 
  2.603   2.701   2.722   2.756   2.889   2.908   2.953   2.970
 79 A1   60 B1   80 A1   81 A1   82 A1   61 B1   62 B1   83 A1                 
  3.120   3.222   3.367   3.601   4.358
 63 B1   84 A1   64 B1   85 A1   86 A1                                         

 Beta MOs, Unrestricted
 -- Occupied --                  
-105.01  -11.51  -11.50  -11.50  -11.50  -11.50  -11.46  -10.73
  1 A1    2 A1    3 A1    1 B1    2 B1    4 A1    5 A1    6 A1                 
 -8.202  -8.199  -8.199  -1.405  -1.319  -1.242  -1.206  -1.060
  7 A1    1 B2    3 B1    8 A1    9 A1    4 B1   10 A1    5 B1                 
 -1.042  -0.928  -0.874  -0.863  -0.830  -0.788  -0.736  -0.722
 11 A1   12 A1    6 B1   13 A1    7 B1   14 A1    8 B1    2 B2                 
 -0.718  -0.639  -0.625  -0.547
 15 A1    3 B2    9 B1    4 B2                                                 
 -- Virtual --                   
 -0.258  -0.086  -0.073  -0.070  -0.061  -0.051  -0.042  -0.041
  1 A2   16 A1    5 B2   10 B1   17 A1    2 A2   11 B1   18 A1                 
 -0.024  -0.021  -0.011   0.003   0.009   0.012   0.015   0.023
  6 B2   19 A1   20 A1    3 A2    7 B2   12 B1   21 A1   13 B1                 
  0.027   0.030   0.035   0.045   0.051   0.057   0.060   0.061
 22 A1   23 A1   14 B1   24 A1    8 B2   15 B1   25 A1    4 A2                 
  0.066   0.074   0.081   0.081   0.103   0.117   0.144   0.150
  9 B2   16 B1   26 A1   10 B2   17 B1   27 A1   28 A1   29 A1                 
  0.158   0.159   0.162   0.171   0.182   0.184   0.185   0.194
 18 B1   11 B2   19 B1   30 A1   20 B1   31 A1   12 B2   21 B1                 
  0.203   0.222   0.238   0.242   0.245   0.257   0.262   0.275
 32 A1   22 B1   33 A1   34 A1   23 B1    5 A2   35 A1   24 B1                 
  0.277   0.288   0.296   0.297   0.342   0.343   0.374   0.378
 36 A1   13 B2    6 A2   25 B1    7 A2   37 A1   38 A1   14 B2                 
  0.395   0.399   0.399   0.411   0.414   0.420   0.448   0.461
 39 A1   26 B1   40 A1   15 B2   27 B1    8 A2   41 A1   16 B2                 
  0.474   0.476   0.492   0.498   0.501   0.509   0.517   0.533
 28 B1   42 A1   17 B2   43 A1   29 B1   44 A1   30 B1   45 A1                 
  0.543   0.558   0.561   0.588   0.598   0.599   0.600   0.618
 31 B1    9 A2   46 A1   10 A2   18 B2   47 A1   32 B1   33 B1                 
  0.631   0.651   0.652   0.683   0.684   0.697   0.714   0.728
 48 A1   19 B2   34 B1   35 B1   49 A1   36 B1   20 B2   11 A2                 
  0.736   0.737   0.755   0.765   0.779   0.784   0.796   0.798
 50 A1   12 A2   21 B2   22 B2   51 A1   23 B2   37 B1   52 A1                 
  0.801   0.809   0.837   0.889   0.904   0.940   0.959   0.971
 13 A2   53 A1   54 A1   14 A2   55 A1   24 B2   38 B1   39 B1                 
  0.988   0.999   1.018   1.093   1.148   1.222   1.240   1.247
 40 B1   15 A2   25 B2   56 A1   41 B1   16 A2   26 B2   57 A1                 
  1.281   1.298   1.301   1.305   1.311   1.324   1.344   1.346
 27 B2   58 A1   42 B1   17 A2   59 A1   43 B1   60 A1   44 B1                 
  1.364   1.399   1.405   1.413   1.427   1.445   1.451   1.459
 61 A1   28 B2   45 B1   62 A1   63 A1   64 A1   46 B1   65 A1                 
  1.466   1.488   1.496   1.498   1.540   1.568   1.575   1.615
 47 B1   18 A2   29 B2   19 A2   30 B2   48 B1   66 A1   49 B1                 
  1.672   1.679   1.694   1.731   1.736   1.740   1.755   1.756
 67 A1   20 A2   68 A1   31 B2   50 B1   69 A1   51 B1   70 A1                 
  1.816   1.833   1.840   1.895   1.901   1.906   1.924   1.966
 32 B2   71 A1   52 B1   33 B2   53 B1   21 A2   72 A1   34 B2                 
  1.980   1.993   2.029   2.063   2.070   2.082   2.134   2.141
 22 A2   73 A1   54 B1   74 A1   55 B1   35 B2   56 B1   75 A1                 
  2.150   2.193   2.205   2.232   2.389   2.416   2.500   2.575
 23 A2   76 A1   57 B1   77 A1   24 A2   36 B2   58 B1   78 A1                 
  2.597   2.602   2.704   2.724   2.758   2.893   2.916   2.959
 59 B1   79 A1   60 B1   80 A1   81 A1   82 A1   61 B1   62 B1                 
  2.970   3.122   3.222   3.375   3.604   4.363
 83 A1   63 B1   84 A1   64 B1   85 A1   86 A1                                 

 Occupation and symmetry of molecular orbitals

 Point group: C2v (4 irreducible representations).

                           A1   A2   B1   B2    All 
 ----------------------------------------------------
 All molecular orbitals:
  - Alpha                  86   24   64   36    210 
  - Beta                   86   24   64   36    210 
 ----------------------------------------------------
 Alpha orbitals:
  - Frozen occupied        7    0    3    1     11  
  - Active occupied        8    1    6    3     18  
  - Active virtual         71   23   55   32    181 
  - Frozen virtual         0    0    0    0     0   
 ----------------------------------------------------
 Beta orbitals:
  - Frozen occupied        7    0    3    1     11  
  - Active occupied        8    0    6    3     17  
  - Active virtual         71   24   55   32    182 
  - Frozen virtual         0    0    0    0     0   
 ----------------------------------------------------

 Import integrals:   CPU 0.00 s  wall 0.00 s

 Import integrals:   CPU 244.05 s  wall 193.49 s

 MP2 amplitudes:   CPU 2.61 s  wall 3.73 s

           CCSD T amplitudes will be solved using DIIS.

           Start     Size      MaxIter   EConv     TConv     
           3         7         100       1.00e-06  1.00e-04  
 ------------------------------------------------------------------------------
           Energy (a.u.)   Ediff      Tdiff       Comment
 ------------------------------------------------------------------------------
          -690.23662305                           
     1    -690.26065688   2.40e-02   9.60e-01     
     2    -690.28646596   2.58e-02   1.20e-01     
     3    -690.28900128   2.54e-03   4.21e-02     
     4    -690.29226242   3.26e-03   1.49e-02     Switched to DIIS steps.
     5    -690.29388811   1.63e-03   1.36e-02     
     6    -690.29412779   2.40e-04   4.15e-03     
     7    -690.29417353   4.57e-05   1.98e-03     
     8    -690.29419226   1.87e-05   6.08e-04     
     9    -690.29419921   6.95e-06   2.67e-04     
    10    -690.29420038   1.17e-06   1.19e-04     
    11    -690.29420031   7.29e-08   8.48e-05     
 ------------------------------------------------------------------------------
          -690.29420031                           CCSD T converged.

 SCF energy                 = -689.34695436
 MP2 energy                 = -690.23662305
 CCSD correlation energy     =   -0.94724595
 CCSD total energy           = -690.29420031

 CCSD  T1^2 = 0.0294  T2^2 = 0.3907  Leading amplitudes:

 Amplitude    Orbitals with energies
  0.0737       3 (B2) B                  ->    5 (B2) B                   
              -0.6387                         -0.0733                     
 -0.0582       2 (B2) B                  ->    5 (B2) B                   
              -0.7215                         -0.0733                     
  0.0524       4 (B2) B                  ->    11 (B2) B                  
              -0.5466                          0.1591                     
  0.0440       2 (B2) A                  ->    5 (B2) A                   
              -0.7764                         -0.0875                     

 Amplitude    Orbitals with energies
 -0.0534       4 (B2) A      4 (B2) B    ->    5 (B2) A      5 (B2) B     
              -0.5349       -0.5466           -0.0875       -0.0733       
  0.0534       4 (B2) A      4 (B2) B    ->    5 (B2) B      5 (B2) A     
              -0.5349       -0.5466           -0.0733       -0.0875       
  0.0534       4 (B2) B      4 (B2) A    ->    5 (B2) A      5 (B2) B     
              -0.5466       -0.5349           -0.0875       -0.0733       
 -0.0534       4 (B2) B      4 (B2) A    ->    5 (B2) B      5 (B2) A     
              -0.5466       -0.5349           -0.0733       -0.0875       

 Computing CCSD intermediates for later calculations
 Finished.

           CCSD Lambda amplitudes will be solved using DIIS.
           Start     Size      MaxIter   EConv     LConv     
           3         7         100       1.00e-06  1.00e-04  
 ------------------------------------------------------------------------------
            Enorm      Ldiff       Comment
 ------------------------------------------------------------------------------
     1     6.13e-02   4.95e-02     
     2     1.23e-02   3.10e-03     
     3     5.37e-03   2.17e-03     
     4     2.74e-03   9.33e-04     Switched to DIIS steps.
     5     9.69e-04   6.07e-04     
     6     4.39e-04   1.75e-04     
     7     1.52e-04   5.61e-05     
     8     6.82e-05   1.03e-05     
     9     2.76e-05   2.45e-06     
    10     1.39e-05   1.76e-07     
    11     6.79e-06   5.56e-07     
    12     3.53e-06   5.02e-07     
    13     1.53e-06   5.00e-07     
    14     6.44e-07   1.98e-07     
 ------------------------------------------------------------------------------
                                   CCSD Lambda converged.

 CCSD calculation:   CPU 1071.60 s  wall 1210.00 s

        Solving for CVS-EOMEE-CCSD A1 transitions.

        CVS-EOMEE-CCSD/MP2 right amplitudes will be solved using Davidson.
        Amplitudes will be solved using standard  algorithm.
     Hard-coded thresholds: 
     LinDepThresh=1.00e-15  NormThresh=1.00e-06  ReorthogonThresh=1.00e-02

      Roots     MaxVec    MaxIter   Precond   Conv      Shift    
      5         120       60        1         1.00e-05  0.00e+00  
 ------------------------------------------------------------------------------
      Iter ConvRoots NVecs ResNorm Current eigenvalues (eV)
 ------------------------------------------------------------------------------
      0    0      5     9.42e-01   216.7555   217.5430   218.3103   218.3465   218.8547   
      1    0      10    3.73e+00   212.3337   213.2294   214.9150   214.9527   215.3298   
      2    0      15    2.58e-02   205.9183   206.7219   208.7307   208.7740   209.4345   
      3    0      20    9.94e-03   205.5328   206.3449   208.3228   208.3760   209.1674   
      4    0      25    1.76e-02   205.3988   206.1530   207.8543   208.0209   209.0637   
      5    0      30    2.02e-02   205.3224   206.0154   206.5669   207.1701   208.8679   
      6    0      35    1.43e-02   205.2969   205.6800   205.9801   206.5698   208.7693   
      7    0      40    1.51e-02   204.8657   205.3002   205.8582   206.0675   208.4333   
      8    0      45    8.76e-03   204.3800   205.1725   205.4056   205.9960   208.0517   
      9    0      50    2.83e-03   204.2627   205.0256   205.3580   205.9912   207.8771   
      10   0      55    3.17e-03   204.2062   204.9426   205.3465   205.9875   207.6930   
      11   0      60    7.31e-04   204.1874   204.9034   205.3423   205.9867   207.5866   
      12   1      65    2.74e-04   204.1843   204.8930   205.3412   205.9862*  207.5526   
      13   2      69    8.52e-05   204.1843   204.8918   205.3411*  205.9861*  207.5402   
      14   3      72    6.12e-05   204.1842*  204.8917   205.3410*  205.9861*  207.5340   
      15   4      74    3.24e-05   204.1841*  204.8913*  205.3410*  205.9861*  207.5301   
      16   4      75    1.15e-05   204.1840*  204.8913*  205.3410*  205.9861*  207.5282   
      17   4      76    6.70e-06   204.1840*  204.8913*  205.3410*  205.9861*  207.5276   
      18   4      77    4.18e-06   204.1840*  204.8913*  205.3410*  205.9861*  207.5273   
      19   5      78    2.79e-06   204.1840*  204.8913*  205.3410*  205.9861*  207.5270*  

     Davidson procedure converged

 EOMEE transition 1/A1
 Total energy = -682.79057674 a.u.  Excitation energy = 204.1840 eV.
 R0^2 = 0.0000  R1^2 = 0.8931  R2_CCVV^2 = 0.0018  R2_COVV^2 = 0.0526  Res^2 = 5.14e-07
 Conv-d = yes

 Amplitude    Transitions between orbitals
  0.3487       7 (A1) B                  ->    20 (A1) B                  
 -0.2846       7 (A1) B                  ->    26 (A1) B                  
 -0.2823       7 (A1) B                  ->    21 (A1) B                  
 -0.2720       7 (A1) A                  ->    20 (A1) A                  
  0.2524       7 (A1) B                  ->    27 (A1) B                  
 -0.2402       7 (A1) A                  ->    27 (A1) A                  
  0.2373       7 (A1) A                  ->    26 (A1) A                  
  0.2296       7 (A1) A                  ->    21 (A1) A                  
 -0.2088       7 (A1) B                  ->    25 (A1) B                  
  0.1761       7 (A1) A                  ->    25 (A1) A                  
  0.1625       7 (A1) B                  ->    18 (A1) B                  
 -0.1420       7 (A1) B                  ->    24 (A1) B                  
  0.1393       7 (A1) B                  ->    19 (A1) B                  
 -0.1287       7 (A1) A                  ->    18 (A1) A                  
  0.1029       7 (A1) A                  ->    24 (A1) A                  

              Summary of significant orbitals:

               Number  Type             Irrep      Energy
               9       Occ  Alpha       7 (A1)     -8.2027
               9       Occ  Beta        7 (A1)     -8.2018
               36      Vir  Alpha      18 (A1)     -0.0415
               39      Vir  Alpha      20 (A1)     -0.0096
               43      Vir  Alpha      21 (A1)      0.0153
               49      Vir  Alpha      24 (A1)      0.0448
               52      Vir  Alpha      25 (A1)      0.0595
               56      Vir  Alpha      26 (A1)      0.0819
               58      Vir  Alpha      27 (A1)      0.1179
               36      Vir  Beta       18 (A1)     -0.0408
               38      Vir  Beta       19 (A1)     -0.0215
               39      Vir  Beta       20 (A1)     -0.0108
               43      Vir  Beta       21 (A1)      0.0145
               48      Vir  Beta       24 (A1)      0.0452
               51      Vir  Beta       25 (A1)      0.0596
               55      Vir  Beta       26 (A1)      0.0807
               58      Vir  Beta       27 (A1)      0.1169


 EOMEE transition 2/A1
 Total energy = -682.76458305 a.u.  Excitation energy = 204.8913 eV.
 R0^2 = 0.0000  R1^2 = 0.8777  R2_CCVV^2 = 0.0020  R2_COVV^2 = 0.0601  Res^2 = 4.31e-06
 Conv-d = yes

 Amplitude    Transitions between orbitals
 -0.3460       7 (A1) A                  ->    20 (A1) A                  
 -0.2961       7 (A1) B                  ->    20 (A1) B                  
  0.2781       7 (A1) A                  ->    21 (A1) A                  
  0.2685       7 (A1) A                  ->    26 (A1) A                  
 -0.2627       7 (A1) A                  ->    27 (A1) A                  
  0.2282       7 (A1) B                  ->    21 (A1) B                  
  0.2147       7 (A1) B                  ->    26 (A1) B                  
 -0.2141       1 (B2) A                  ->    5 (B2) A                   
  0.1999       7 (A1) A                  ->    25 (A1) A                  
 -0.1834       7 (A1) B                  ->    27 (A1) B                  
 -0.1600       7 (A1) A                  ->    18 (A1) A                  
  0.1578       7 (A1) B                  ->    25 (A1) B                  
 -0.1357       7 (A1) B                  ->    18 (A1) B                  
  0.1165       7 (A1) A                  ->    24 (A1) A                  
  0.1074       7 (A1) B                  ->    24 (A1) B                  
 -0.1070       7 (A1) B                  ->    19 (A1) B                  

              Summary of significant orbitals:

               Number  Type             Irrep      Energy
               9       Occ  Alpha       7 (A1)     -8.2027
               11      Occ  Alpha       1 (B2)     -8.1977
               9       Occ  Beta        7 (A1)     -8.2018
               36      Vir  Alpha      18 (A1)     -0.0415
               39      Vir  Alpha      20 (A1)     -0.0096
               43      Vir  Alpha      21 (A1)      0.0153
               49      Vir  Alpha      24 (A1)      0.0448
               52      Vir  Alpha      25 (A1)      0.0595
               56      Vir  Alpha      26 (A1)      0.0819
               58      Vir  Alpha      27 (A1)      0.1179
               31      Vir  Alpha       5 (B2)     -0.0875
               36      Vir  Beta       18 (A1)     -0.0408
               38      Vir  Beta       19 (A1)     -0.0215
               39      Vir  Beta       20 (A1)     -0.0108
               43      Vir  Beta       21 (A1)      0.0145
               48      Vir  Beta       24 (A1)      0.0452
               51      Vir  Beta       25 (A1)      0.0596
               55      Vir  Beta       26 (A1)      0.0807
               58      Vir  Beta       27 (A1)      0.1169


 EOMEE transition 3/A1
 Total energy = -682.74805654 a.u.  Excitation energy = 205.3410 eV.
 R0^2 = 0.0000  R1^2 = 0.8485  R2_CCVV^2 = 0.0019  R2_COVV^2 = 0.0748  Res^2 = 6.36e-07
 Conv-d = yes

 Amplitude    Transitions between orbitals
 -0.8432       1 (B2) A                  ->    5 (B2) A                   
 -0.1790       1 (B2) A                  ->    11 (B2) A                  
  0.1670       1 (B2) A                  ->    8 (B2) A                   
 -0.1087       1 (B2) A                  ->    10 (B2) A                  

              Summary of significant orbitals:

               Number  Type             Irrep      Energy
               11      Occ  Alpha       1 (B2)     -8.1977
               31      Vir  Alpha       5 (B2)     -0.0875
               48      Vir  Alpha       8 (B2)      0.0435
               55      Vir  Alpha      10 (B2)      0.0805
               59      Vir  Alpha      11 (B2)      0.1294


 EOMEE transition 4/A1
 Total energy = -682.72435050 a.u.  Excitation energy = 205.9861 eV.
 R0^2 = 0.0000  R1^2 = 0.8381  R2_CCVV^2 = 0.0019  R2_COVV^2 = 0.0800  Res^2 = 1.92e-06
 Conv-d = yes

 Amplitude    Transitions between orbitals
 -0.8274       1 (B2) B                  ->    5 (B2) B                   
 -0.2428       1 (B2) B                  ->    6 (B2) B                   
  0.1946       1 (B2) B                  ->    8 (B2) B                   
 -0.1614       1 (B2) B                  ->    11 (B2) B                  

              Summary of significant orbitals:

               Number  Type             Irrep      Energy
               10      Occ  Beta        1 (B2)     -8.1990
               31      Vir  Beta        5 (B2)     -0.0733
               37      Vir  Beta        6 (B2)     -0.0235
               49      Vir  Beta        8 (B2)      0.0506
               62      Vir  Beta       11 (B2)      0.1591


 EOMEE transition 5/A1
 Total energy = -682.66772281 a.u.  Excitation energy = 207.5270 eV.
 R0^2 = 0.0000  R1^2 = 0.8650  R2_CCVV^2 = 0.0019  R2_COVV^2 = 0.0666  Res^2 = 6.56e-06
 Conv-d = yes

 Amplitude    Transitions between orbitals
 -0.4387       7 (A1) A                  ->    16 (A1) A                  
  0.3870       7 (A1) A                  ->    17 (A1) A                  
 -0.3028       7 (A1) A                  ->    18 (A1) A                  
  0.2993       7 (A1) B                  ->    16 (A1) B                  
 -0.2782       7 (A1) B                  ->    17 (A1) B                  
 -0.2458       7 (A1) A                  ->    21 (A1) A                  
  0.2191       7 (A1) B                  ->    18 (A1) B                  
  0.1775       7 (A1) B                  ->    21 (A1) B                  
 -0.1225       7 (A1) A                  ->    24 (A1) A                  
 -0.1039       7 (A1) A                  ->    28 (A1) A                  

              Summary of significant orbitals:

               Number  Type             Irrep      Energy
               9       Occ  Alpha       7 (A1)     -8.2027
               9       Occ  Beta        7 (A1)     -8.2018
               32      Vir  Alpha      16 (A1)     -0.0872
               34      Vir  Alpha      17 (A1)     -0.0614
               36      Vir  Alpha      18 (A1)     -0.0415
               43      Vir  Alpha      21 (A1)      0.0153
               49      Vir  Alpha      24 (A1)      0.0448
               60      Vir  Alpha      28 (A1)      0.1412
               30      Vir  Beta       16 (A1)     -0.0864
               33      Vir  Beta       17 (A1)     -0.0613
               36      Vir  Beta       18 (A1)     -0.0408
               43      Vir  Beta       21 (A1)      0.0145


      CVS-EOM-CCSD/MP2 left amplitudes will be solved using Davidson.
        Amplitudes will be solved using MOM  algorithm.
     Hard-coded thresholds: 
     LinDepThresh=1.00e-15  NormThresh=1.00e-06  ReorthogonThresh=1.00e-02

      Roots     MaxVec    MaxIter   Precond   Conv      Shift    
      5         120       60        1         1.00e-05  0.00e+00  
 ------------------------------------------------------------------------------
      Iter ConvRoots NVecs ResNorm Current eigenvalues (eV)
 ------------------------------------------------------------------------------
      0    0      5     1.68e-02   204.1840   204.8913   205.3410   205.9861   207.5270   
      1    0      10    3.73e-02   204.1840   204.8913   205.3410   205.9861   207.5270   
      2    0      15    5.95e-04   204.1840   204.8913   205.3410   205.9861   207.5271   
      3    0      20    6.58e-05   204.1840   204.8913   205.3410   205.9861   207.5270   
      4    1      25    1.80e-05   204.1840   204.8913   205.3410   205.9861   207.5270*  
      5    4      29    6.37e-06   204.1840*  204.8913*  205.3410*  205.9861   207.5270*  
      6    4      30    4.82e-06   204.1840*  204.8913*  205.3410*  205.9861   207.5270*  
      7    5      31    3.29e-06   204.1840*  204.8913*  205.3410*  205.9861*  207.5270*  

     Davidson procedure converged

        Solving for CVS-EOMEE-CCSD B1 transitions.

        CVS-EOMEE-CCSD/MP2 right amplitudes will be solved using Davidson.
        Amplitudes will be solved using standard  algorithm.
     Hard-coded thresholds: 
     LinDepThresh=1.00e-15  NormThresh=1.00e-06  ReorthogonThresh=1.00e-02

      Roots     MaxVec    MaxIter   Precond   Conv      Shift    
      5         120       60        1         1.00e-05  0.00e+00  
 ------------------------------------------------------------------------------
      Iter ConvRoots NVecs ResNorm Current eigenvalues (eV)
 ------------------------------------------------------------------------------
      0    0      5     9.64e-01   212.9239   216.5194   218.2035   218.2589   218.9785   
      1    0      10    3.69e+00   208.0938   211.9360   214.6208   214.6768   215.6419   
      2    0      15    2.19e-02   201.3065   205.4581   208.5962   208.6473   209.5972   
Found complex roots...
      3    0      20    6.94e-03   201.0548   205.2206   208.2119   208.2568   209.3162   
      4    0      25    1.66e-02   201.0181   205.1997   207.7880   207.8018   209.2135   
      5    0      30    1.85e-02   200.9989   205.1914   206.5713   206.7565   209.0349   
      6    0      35    1.97e-02   200.9947   205.1901   205.7878   206.0668   208.8349   
      7    0      40    3.01e-02   200.9939   204.9344   205.1902   205.2641   208.0587   
      8    2      45    1.06e-02   200.9939*  204.4770   204.7272   205.1903*  207.3206   
      9    2      48    3.50e-03   200.9934*  204.3418   204.5684   205.1903*  206.9234   
      10   2      51    2.39e-03   200.9934*  204.2783   204.4943   205.1903*  206.7471   
      11   2      54    3.61e-04   200.9934*  204.2556   204.4650   205.1903*  206.6955   
      12   2      57    1.09e-04   200.9934*  204.2508   204.4580   205.1903*  206.6819   
      13   2      60    2.23e-05   200.9934*  204.2501   204.4574   205.1903*  206.6775   
      14   3      63    9.94e-06   200.9934*  204.2498*  204.4573   205.1903*  206.6775   
      15   5      65    4.02e-06   200.9934*  204.2498*  204.4570*  205.1903*  206.6768*  

     Davidson procedure converged

 EOMEE transition 1/B1
 Total energy = -682.90782860 a.u.  Excitation energy = 200.9934 eV.
 R0^2 = 0.0000  R1^2 = 0.8311  R2_CCVV^2 = 0.0019  R2_COVV^2 = 0.0835  Res^2 = 6.52e-07
 Conv-d = yes

 Amplitude    Transitions between orbitals
  0.9018       1 (B2) B                  ->    1 (A2) B                   
 -0.1047       1 (B2) B                  ->    2 (A2) B                   
  0.0641       1 (B2) B                  ->    3 (A2) B                   
 -0.0347       1 (B2) B                  ->    4 (A2) B                   

              Summary of significant orbitals:

               Number  Type             Irrep      Energy
               10      Occ  Beta        1 (B2)     -8.1990
               29      Vir  Beta        1 (A2)     -0.2577
               34      Vir  Beta        2 (A2)     -0.0514
               40      Vir  Beta        3 (A2)      0.0031
               52      Vir  Beta        4 (A2)      0.0613


 EOMEE transition 2/B1
 Total energy = -682.78815649 a.u.  Excitation energy = 204.2498 eV.
 R0^2 = 0.0000  R1^2 = 0.8898  R2_CCVV^2 = 0.0019  R2_COVV^2 = 0.0541  Res^2 = 9.44e-06
 Conv-d = yes

 Amplitude    Transitions between orbitals
  0.4156       3 (B1) B                  ->    20 (A1) B                  
 -0.3306       3 (B1) B                  ->    21 (A1) B                  
 -0.3290       3 (B1) B                  ->    26 (A1) B                  
  0.2916       3 (B1) B                  ->    27 (A1) B                  
 -0.2428       3 (B1) B                  ->    25 (A1) B                  
  0.1949       3 (B1) B                  ->    18 (A1) B                  
 -0.1934       3 (B1) A                  ->    20 (A1) A                  
 -0.1643       3 (B1) A                  ->    27 (A1) A                  
 -0.1642       3 (B1) B                  ->    24 (A1) B                  
  0.1632       3 (B1) B                  ->    19 (A1) B                  
  0.1610       3 (B1) A                  ->    26 (A1) A                  
  0.1561       3 (B1) A                  ->    21 (A1) A                  
  0.1209       3 (B1) A                  ->    25 (A1) A                  
  0.1116       3 (B1) B                  ->    30 (A1) B                  
 -0.1065       3 (B1) B                  ->    36 (A1) B                  
 -0.1024       3 (B1) B                  ->    16 (A1) B                  

              Summary of significant orbitals:

               Number  Type             Irrep      Energy
               10      Occ  Alpha       3 (B1)     -8.1984
               11      Occ  Beta        3 (B1)     -8.1986
               39      Vir  Alpha      20 (A1)     -0.0096
               43      Vir  Alpha      21 (A1)      0.0153
               52      Vir  Alpha      25 (A1)      0.0595
               56      Vir  Alpha      26 (A1)      0.0819
               58      Vir  Alpha      27 (A1)      0.1179
               30      Vir  Beta       16 (A1)     -0.0864
               36      Vir  Beta       18 (A1)     -0.0408
               38      Vir  Beta       19 (A1)     -0.0215
               39      Vir  Beta       20 (A1)     -0.0108
               43      Vir  Beta       21 (A1)      0.0145
               48      Vir  Beta       24 (A1)      0.0452
               51      Vir  Beta       25 (A1)      0.0596
               55      Vir  Beta       26 (A1)      0.0807
               58      Vir  Beta       27 (A1)      0.1169
               64      Vir  Beta       30 (A1)      0.1710
               77      Vir  Beta       36 (A1)      0.2770


 EOMEE transition 3/B1
 Total energy = -682.78054497 a.u.  Excitation energy = 204.4570 eV.
 R0^2 = 0.0000  R1^2 = 0.8869  R2_CCVV^2 = 0.0020  R2_COVV^2 = 0.0556  Res^2 = 2.51e-06
 Conv-d = yes

 Amplitude    Transitions between orbitals
 -0.3994       3 (B1) A                  ->    20 (A1) A                  
  0.3307       3 (B1) A                  ->    21 (A1) A                  
  0.3289       3 (B1) A                  ->    26 (A1) A                  
 -0.3276       3 (B1) A                  ->    27 (A1) A                  
  0.2447       3 (B1) A                  ->    25 (A1) A                  
 -0.2038       3 (B1) B                  ->    20 (A1) B                  
 -0.1870       3 (B1) A                  ->    18 (A1) A                  
  0.1662       3 (B1) B                  ->    21 (A1) B                  
  0.1594       3 (B1) B                  ->    26 (A1) B                  
  0.1449       3 (B1) A                  ->    24 (A1) A                  
 -0.1374       3 (B1) B                  ->    27 (A1) B                  
 -0.1198       3 (B1) A                  ->    19 (A1) A                  
 -0.1180       3 (B1) A                  ->    30 (A1) A                  
  0.1162       3 (B1) B                  ->    25 (A1) B                  
 -0.1104       3 (B1) A                  ->    23 (A1) A                  
  0.1068       3 (B1) A                  ->    16 (A1) A                  
  0.1019       3 (B1) A                  ->    36 (A1) A                  

              Summary of significant orbitals:

               Number  Type             Irrep      Energy
               10      Occ  Alpha       3 (B1)     -8.1984
               11      Occ  Beta        3 (B1)     -8.1986
               32      Vir  Alpha      16 (A1)     -0.0872
               36      Vir  Alpha      18 (A1)     -0.0415
               38      Vir  Alpha      19 (A1)     -0.0233
               39      Vir  Alpha      20 (A1)     -0.0096
               43      Vir  Alpha      21 (A1)      0.0153
               46      Vir  Alpha      23 (A1)      0.0297
               49      Vir  Alpha      24 (A1)      0.0448
               52      Vir  Alpha      25 (A1)      0.0595
               56      Vir  Alpha      26 (A1)      0.0819
               58      Vir  Alpha      27 (A1)      0.1179
               64      Vir  Alpha      30 (A1)      0.1684
               77      Vir  Alpha      36 (A1)      0.2772
               39      Vir  Beta       20 (A1)     -0.0108
               43      Vir  Beta       21 (A1)      0.0145
               51      Vir  Beta       25 (A1)      0.0596
               55      Vir  Beta       26 (A1)      0.0807
               58      Vir  Beta       27 (A1)      0.1169


 EOMEE transition 4/B1
 Total energy = -682.75359555 a.u.  Excitation energy = 205.1903 eV.
 R0^2 = 0.0000  R1^2 = 0.8338  R2_CCVV^2 = 0.0019  R2_COVV^2 = 0.0821  Res^2 = 1.34e-06
 Conv-d = yes

 Amplitude    Transitions between orbitals
  0.9090       1 (B2) A                  ->    2 (A2) A                   
 -0.0503       1 (B2) A                  ->    4 (A2) A                   
  0.0479       1 (B2) A                  ->    6 (A2) A                   
 -0.0284       1 (B2) A                  ->    5 (A2) A                   

              Summary of significant orbitals:

               Number  Type             Irrep      Energy
               11      Occ  Alpha       1 (B2)     -8.1977
               30      Vir  Alpha       2 (A2)     -0.1424
               50      Vir  Alpha       4 (A2)      0.0451
               74      Vir  Alpha       5 (A2)      0.2486
               79      Vir  Alpha       6 (A2)      0.2903


 EOMEE transition 5/B1
 Total energy = -682.69896894 a.u.  Excitation energy = 206.6768 eV.
 R0^2 = 0.0000  R1^2 = 0.8264  R2_CCVV^2 = 0.0019  R2_COVV^2 = 0.0858  Res^2 = 6.17e-06
 Conv-d = yes

 Amplitude    Transitions between orbitals
  0.8719       1 (B2) B                  ->    2 (A2) B                   
  0.2147       1 (B2) B                  ->    4 (A2) B                   
  0.1021       1 (B2) B                  ->    1 (A2) B                   
  0.0509       1 (B2) B                  ->    6 (A2) B                   

              Summary of significant orbitals:

               Number  Type             Irrep      Energy
               10      Occ  Beta        1 (B2)     -8.1990
               29      Vir  Beta        1 (A2)     -0.2577
               34      Vir  Beta        2 (A2)     -0.0514
               52      Vir  Beta        4 (A2)      0.0613
               79      Vir  Beta        6 (A2)      0.2963


      CVS-EOM-CCSD/MP2 left amplitudes will be solved using Davidson.
        Amplitudes will be solved using MOM  algorithm.
     Hard-coded thresholds: 
     LinDepThresh=1.00e-15  NormThresh=1.00e-06  ReorthogonThresh=1.00e-02

      Roots     MaxVec    MaxIter   Precond   Conv      Shift    
      5         120       60        1         1.00e-05  0.00e+00  
 ------------------------------------------------------------------------------
      Iter ConvRoots NVecs ResNorm Current eigenvalues (eV)
 ------------------------------------------------------------------------------
      0    0      5     1.91e-02   200.9934   204.2498   204.4570   205.1903   206.6768   
      1    0      10    3.46e-02   200.9935   204.2497   204.4570   205.1903   206.6767   
      2    0      15    5.53e-04   200.9934   204.2498   204.4570   205.1903   206.6767   
      3    0      20    6.43e-05   200.9934   204.2498   204.4570   205.1902   206.6766   
      4    4      25    7.55e-06   200.9934*  204.2498   204.4570*  205.1902*  206.6766*  
      5    5      26    5.20e-06   200.9934*  204.2498*  204.4570*  205.1902*  206.6766*  

     Davidson procedure converged

        Solving for CVS-EOMEE-CCSD B2 transitions.

        CVS-EOMEE-CCSD/MP2 right amplitudes will be solved using Davidson.
        Amplitudes will be solved using standard  algorithm.
     Hard-coded thresholds: 
     LinDepThresh=1.00e-15  NormThresh=1.00e-06  ReorthogonThresh=1.00e-02

      Roots     MaxVec    MaxIter   Precond   Conv      Shift    
      5         120       60        1         1.00e-05  0.00e+00  
 ------------------------------------------------------------------------------
      Iter ConvRoots NVecs ResNorm Current eigenvalues (eV)
 ------------------------------------------------------------------------------
      0    0      5     9.91e-01   212.9121   216.5323   216.8483   218.1886   218.2692   
      1    0      10    3.85e+00   208.1039   211.9698   212.6587   214.5886   214.6690   
      2    0      15    2.39e-02   201.3040   205.4684   206.0360   208.5834   208.6482   
      3    0      20    8.04e-03   201.0538   205.2334   205.6317   208.1970   208.2571   
      4    0      25    1.63e-02   201.0177   205.2119   205.4968   207.7806   207.7947   
      5    0      30    1.73e-02   200.9986   205.2042   205.4258   206.5745   206.7459   
      6    0      35    1.52e-02   200.9943   205.2029   205.4093   205.7944   206.0598   
      7    0      40    1.31e-02   200.9936   204.9660   205.2029   205.2601   205.4156   
      8    2      45    5.11e-03   200.9936*  204.4843   204.7249   205.2030*  205.4087   
      9    2      48    1.57e-03   200.9936*  204.3450   204.5643   205.2030*  205.4081   
      10   3      51    1.21e-03   200.9936*  204.2843   204.4900   205.2030*  205.4078*  
      11   3      53    1.60e-04   200.9936*  204.2611   204.4604   205.2030*  205.4077*  
      12   3      55    4.85e-05   200.9936*  204.2554   204.4533   205.2030*  205.4077*  
      13   3      57    9.75e-06   200.9936*  204.2549   204.4526   205.2030*  205.4077*  
      14   4      59    6.68e-06   200.9936*  204.2549*  204.4526   205.2030*  205.4077*  
      15   5      60    4.63e-06   200.9936*  204.2549*  204.4522*  205.2030*  205.4077*  

     Davidson procedure converged

 EOMEE transition 1/B2
 Total energy = -682.90782108 a.u.  Excitation energy = 200.9936 eV.
 R0^2 = 0.0000  R1^2 = 0.8316  R2_CCVV^2 = 0.0019  R2_COVV^2 = 0.0833  Res^2 = 7.95e-06
 Conv-d = yes

 Amplitude    Transitions between orbitals
  0.9020       3 (B1) B                  ->    1 (A2) B                   
 -0.1032       3 (B1) B                  ->    2 (A2) B                   
  0.0660       3 (B1) B                  ->    3 (A2) B                   
 -0.0347       3 (B1) B                  ->    4 (A2) B                   

              Summary of significant orbitals:

               Number  Type             Irrep      Energy
               11      Occ  Beta        3 (B1)     -8.1986
               29      Vir  Beta        1 (A2)     -0.2577
               34      Vir  Beta        2 (A2)     -0.0514
               40      Vir  Beta        3 (A2)      0.0031
               52      Vir  Beta        4 (A2)      0.0613


 EOMEE transition 2/B2
 Total energy = -682.78797221 a.u.  Excitation energy = 204.2549 eV.
 R0^2 = 0.0000  R1^2 = 0.8896  R2_CCVV^2 = 0.0019  R2_COVV^2 = 0.0543  Res^2 = 9.24e-06
 Conv-d = yes

 Amplitude    Transitions between orbitals
  0.4097       1 (B2) B                  ->    20 (A1) B                  
 -0.3262       1 (B2) B                  ->    21 (A1) B                  
 -0.3260       1 (B2) B                  ->    26 (A1) B                  
  0.2870       1 (B2) B                  ->    27 (A1) B                  
 -0.2399       1 (B2) B                  ->    25 (A1) B                  
 -0.2040       1 (B2) A                  ->    20 (A1) A                  
  0.1918       1 (B2) B                  ->    18 (A1) B                  
 -0.1727       1 (B2) A                  ->    27 (A1) A                  
  0.1709       1 (B2) A                  ->    26 (A1) A                  
  0.1653       1 (B2) A                  ->    21 (A1) A                  
 -0.1604       1 (B2) B                  ->    24 (A1) B                  
  0.1596       1 (B2) B                  ->    19 (A1) B                  
  0.1277       1 (B2) A                  ->    25 (A1) A                  
  0.1108       1 (B2) B                  ->    30 (A1) B                  
 -0.1069       1 (B2) B                  ->    36 (A1) B                  
 -0.1013       1 (B2) B                  ->    16 (A1) B                  

              Summary of significant orbitals:

               Number  Type             Irrep      Energy
               11      Occ  Alpha       1 (B2)     -8.1977
               10      Occ  Beta        1 (B2)     -8.1990
               39      Vir  Alpha      20 (A1)     -0.0096
               43      Vir  Alpha      21 (A1)      0.0153
               52      Vir  Alpha      25 (A1)      0.0595
               56      Vir  Alpha      26 (A1)      0.0819
               58      Vir  Alpha      27 (A1)      0.1179
               30      Vir  Beta       16 (A1)     -0.0864
               36      Vir  Beta       18 (A1)     -0.0408
               38      Vir  Beta       19 (A1)     -0.0215
               39      Vir  Beta       20 (A1)     -0.0108
               43      Vir  Beta       21 (A1)      0.0145
               48      Vir  Beta       24 (A1)      0.0452
               51      Vir  Beta       25 (A1)      0.0596
               55      Vir  Beta       26 (A1)      0.0807
               58      Vir  Beta       27 (A1)      0.1169
               64      Vir  Beta       30 (A1)      0.1710
               77      Vir  Beta       36 (A1)      0.2770


 EOMEE transition 3/B2
 Total energy = -682.78071964 a.u.  Excitation energy = 204.4522 eV.
 R0^2 = 0.0000  R1^2 = 0.8867  R2_CCVV^2 = 0.0020  R2_COVV^2 = 0.0556  Res^2 = 2.52e-06
 Conv-d = yes

 Amplitude    Transitions between orbitals
  0.3941       1 (B2) A                  ->    20 (A1) A                  
 -0.3267       1 (B2) A                  ->    21 (A1) A                  
 -0.3258       1 (B2) A                  ->    26 (A1) A                  
  0.3228       1 (B2) A                  ->    27 (A1) A                  
 -0.2417       1 (B2) A                  ->    25 (A1) A                  
  0.2146       1 (B2) B                  ->    20 (A1) B                  
  0.1841       1 (B2) A                  ->    18 (A1) A                  
 -0.1745       1 (B2) B                  ->    21 (A1) B                  
 -0.1682       1 (B2) B                  ->    26 (A1) B                  
  0.1449       1 (B2) B                  ->    27 (A1) B                  
 -0.1417       1 (B2) A                  ->    24 (A1) A                  
 -0.1227       1 (B2) B                  ->    25 (A1) B                  
  0.1171       1 (B2) A                  ->    19 (A1) A                  
  0.1167       1 (B2) A                  ->    30 (A1) A                  
  0.1081       1 (B2) A                  ->    23 (A1) A                  
 -0.1057       1 (B2) A                  ->    16 (A1) A                  
 -0.1020       1 (B2) A                  ->    36 (A1) A                  

              Summary of significant orbitals:

               Number  Type             Irrep      Energy
               11      Occ  Alpha       1 (B2)     -8.1977
               10      Occ  Beta        1 (B2)     -8.1990
               32      Vir  Alpha      16 (A1)     -0.0872
               36      Vir  Alpha      18 (A1)     -0.0415
               38      Vir  Alpha      19 (A1)     -0.0233
               39      Vir  Alpha      20 (A1)     -0.0096
               43      Vir  Alpha      21 (A1)      0.0153
               46      Vir  Alpha      23 (A1)      0.0297
               49      Vir  Alpha      24 (A1)      0.0448
               52      Vir  Alpha      25 (A1)      0.0595
               56      Vir  Alpha      26 (A1)      0.0819
               58      Vir  Alpha      27 (A1)      0.1179
               64      Vir  Alpha      30 (A1)      0.1684
               77      Vir  Alpha      36 (A1)      0.2772
               39      Vir  Beta       20 (A1)     -0.0108
               43      Vir  Beta       21 (A1)      0.0145
               51      Vir  Beta       25 (A1)      0.0596
               55      Vir  Beta       26 (A1)      0.0807
               58      Vir  Beta       27 (A1)      0.1169


 EOMEE transition 4/B2
 Total energy = -682.75312759 a.u.  Excitation energy = 205.2030 eV.
 R0^2 = 0.0000  R1^2 = 0.8340  R2_CCVV^2 = 0.0019  R2_COVV^2 = 0.0821  Res^2 = 1.24e-06
 Conv-d = yes

 Amplitude    Transitions between orbitals
 -0.9090       3 (B1) A                  ->    2 (A2) A                   
  0.0503       3 (B1) A                  ->    4 (A2) A                   
 -0.0480       3 (B1) A                  ->    6 (A2) A                   
  0.0285       3 (B1) A                  ->    5 (A2) A                   

              Summary of significant orbitals:

               Number  Type             Irrep      Energy
               10      Occ  Alpha       3 (B1)     -8.1984
               30      Vir  Alpha       2 (A2)     -0.1424
               50      Vir  Alpha       4 (A2)      0.0451
               74      Vir  Alpha       5 (A2)      0.2486
               79      Vir  Alpha       6 (A2)      0.2903


 EOMEE transition 5/B2
 Total energy = -682.74560543 a.u.  Excitation energy = 205.4077 eV.
 R0^2 = 0.0000  R1^2 = 0.8460  R2_CCVV^2 = 0.0018  R2_COVV^2 = 0.0761  Res^2 = 2.21e-06
 Conv-d = yes

 Amplitude    Transitions between orbitals
 -0.8655       7 (A1) A                  ->    5 (B2) A                   
 -0.1867       7 (A1) A                  ->    11 (B2) A                  
  0.1691       7 (A1) A                  ->    8 (B2) A                   
 -0.1188       7 (A1) A                  ->    10 (B2) A                  

              Summary of significant orbitals:

               Number  Type             Irrep      Energy
               9       Occ  Alpha       7 (A1)     -8.2027
               31      Vir  Alpha       5 (B2)     -0.0875
               48      Vir  Alpha       8 (B2)      0.0435
               55      Vir  Alpha      10 (B2)      0.0805
               59      Vir  Alpha      11 (B2)      0.1294


      CVS-EOM-CCSD/MP2 left amplitudes will be solved using Davidson.
        Amplitudes will be solved using MOM  algorithm.
     Hard-coded thresholds: 
     LinDepThresh=1.00e-15  NormThresh=1.00e-06  ReorthogonThresh=1.00e-02

      Roots     MaxVec    MaxIter   Precond   Conv      Shift    
      5         120       60        1         1.00e-05  0.00e+00  
 ------------------------------------------------------------------------------
      Iter ConvRoots NVecs ResNorm Current eigenvalues (eV)
 ------------------------------------------------------------------------------
      0    0      5     1.85e-02   200.9936   204.2549   204.4522   205.2030   205.4077   
      1    0      10    3.76e-02   200.9934   204.2546   204.4523   205.2030   205.4077   
      2    0      15    6.42e-04   200.9933   204.2547   204.4523   205.2030   205.4077   
      3    0      20    6.19e-05   200.9931   204.2546   204.4522   205.2030   205.4077   
      4    2      25    1.01e-05   200.9931*  204.2546   204.4522   205.2030*  205.4077   
      5    5      28    4.04e-06   200.9931*  204.2546*  204.4522*  205.2030*  205.4077*  

     Davidson procedure converged

 CVS-EOMEE-CCSD calculation:   CPU 27495.55 s  wall 46979.01 s


 Start computing the transition properties

 ------------------------------------------------------------------------------
 State A: ccsd: 0/A1
 State B: cvs_eomee_ccsd/uhfref: 1/A1
 Transition dipole moment (a.u.):
   A->B: 0.000014 (X 0.000000, Y 0.000000, Z -0.000014)
   B->A: 0.000018 (X 0.000000, Y 0.000000, Z 0.000018)
 Oscillator strength (a.u.): -0.000000
 Norm of one-particle transition density matrix:
   A->B: 0.924103;   B->A: 0.930113
   ||gamma^AB||*||gamma^BA||: 0.859520

 ------------------------------------------------------------------------------
 State A: ccsd: 0/A1
 State B: cvs_eomee_ccsd/uhfref: 2/A1
 Transition dipole moment (a.u.):
   A->B: 0.000341 (X 0.000000, Y 0.000000, Z 0.000341)
   B->A: 0.000792 (X 0.000000, Y 0.000000, Z 0.000792)
 Oscillator strength (a.u.): 0.000001
 Norm of one-particle transition density matrix:
   A->B: 0.917414;   B->A: 0.921320
   ||gamma^AB||*||gamma^BA||: 0.845231

 ------------------------------------------------------------------------------
 State A: ccsd: 0/A1
 State B: cvs_eomee_ccsd/uhfref: 3/A1
 Transition dipole moment (a.u.):
   A->B: 0.008704 (X 0.000000, Y 0.000000, Z -0.008704)
   B->A: 0.008910 (X 0.000000, Y 0.000000, Z -0.008910)
 Oscillator strength (a.u.): 0.000390
 Norm of one-particle transition density matrix:
   A->B: 0.890929;   B->A: 0.899092
   ||gamma^AB||*||gamma^BA||: 0.801027

 ------------------------------------------------------------------------------
 State A: ccsd: 0/A1
 State B: cvs_eomee_ccsd/uhfref: 4/A1
 Transition dipole moment (a.u.):
   A->B: 0.009230 (X 0.000000, Y 0.000000, Z -0.009230)
   B->A: 0.009751 (X 0.000000, Y 0.000000, Z -0.009751)
 Oscillator strength (a.u.): 0.000454
 Norm of one-particle transition density matrix:
   A->B: 0.889407;   B->A: 0.900694
   ||gamma^AB||*||gamma^BA||: 0.801083

 ------------------------------------------------------------------------------
 State A: ccsd: 0/A1
 State B: cvs_eomee_ccsd/uhfref: 5/A1
 Transition dipole moment (a.u.):
   A->B: 0.004451 (X 0.000000, Y 0.000000, Z -0.004451)
   B->A: 0.004407 (X 0.000000, Y 0.000000, Z -0.004407)
 Oscillator strength (a.u.): 0.000100
 Norm of one-particle transition density matrix:
   A->B: 0.926108;   B->A: 0.906757
   ||gamma^AB||*||gamma^BA||: 0.839755

 ------------------------------------------------------------------------------
 State A: ccsd: 0/A1
 State B: cvs_eomee_ccsd/uhfref: 1/B1
 Transition dipole moment (a.u.):
   A->B: 0.000906 (X 0.000906, Y 0.000000, Z 0.000000)
   B->A: 0.000908 (X 0.000908, Y 0.000000, Z 0.000000)
 Oscillator strength (a.u.): 0.000004
 Norm of one-particle transition density matrix:
   A->B: 0.890423;   B->A: 0.881642
   ||gamma^AB||*||gamma^BA||: 0.785035

 ------------------------------------------------------------------------------
 State A: ccsd: 0/A1
 State B: cvs_eomee_ccsd/uhfref: 2/B1
 Transition dipole moment (a.u.):
   A->B: 0.011757 (X 0.011757, Y 0.000000, Z 0.000000)
   B->A: 0.011939 (X 0.011939, Y 0.000000, Z 0.000000)
 Oscillator strength (a.u.): 0.000702
 Norm of one-particle transition density matrix:
   A->B: 0.921322;   B->A: 0.928301
   ||gamma^AB||*||gamma^BA||: 0.855264

 ------------------------------------------------------------------------------
 State A: ccsd: 0/A1
 State B: cvs_eomee_ccsd/uhfref: 3/B1
 Transition dipole moment (a.u.):
   A->B: 0.034652 (X -0.034652, Y 0.000000, Z 0.000000)
   B->A: 0.034837 (X -0.034837, Y 0.000000, Z 0.000000)
 Oscillator strength (a.u.): 0.006047
 Norm of one-particle transition density matrix:
   A->B: 0.923377;   B->A: 0.926012
   ||gamma^AB||*||gamma^BA||: 0.855058

 ------------------------------------------------------------------------------
 State A: ccsd: 0/A1
 State B: cvs_eomee_ccsd/uhfref: 4/B1
 Transition dipole moment (a.u.):
   A->B: 0.002233 (X -0.002233, Y 0.000000, Z 0.000000)
   B->A: 0.002218 (X -0.002218, Y 0.000000, Z 0.000000)
 Oscillator strength (a.u.): 0.000025
 Norm of one-particle transition density matrix:
   A->B: 0.882269;   B->A: 0.887968
   ||gamma^AB||*||gamma^BA||: 0.783427

 ------------------------------------------------------------------------------
 State A: ccsd: 0/A1
 State B: cvs_eomee_ccsd/uhfref: 5/B1
 Transition dipole moment (a.u.):
   A->B: 0.003062 (X -0.003062, Y 0.000000, Z 0.000000)
   B->A: 0.003051 (X -0.003051, Y 0.000000, Z 0.000000)
 Oscillator strength (a.u.): 0.000047
 Norm of one-particle transition density matrix:
   A->B: 0.895534;   B->A: 0.879255
   ||gamma^AB||*||gamma^BA||: 0.787403

 ------------------------------------------------------------------------------
 State A: ccsd: 0/A1
 State B: cvs_eomee_ccsd/uhfref: 1/B2
 Transition dipole moment (a.u.):
   A->B: 0.000884 (X 0.000000, Y 0.000884, Z 0.000000)
   B->A: 0.000893 (X 0.000000, Y 0.000893, Z 0.000000)
 Oscillator strength (a.u.): 0.000004
 Norm of one-particle transition density matrix:
   A->B: 0.890522;   B->A: 0.881900
   ||gamma^AB||*||gamma^BA||: 0.785352

 ------------------------------------------------------------------------------
 State A: ccsd: 0/A1
 State B: cvs_eomee_ccsd/uhfref: 2/B2
 Transition dipole moment (a.u.):
   A->B: 0.010189 (X 0.000000, Y 0.010189, Z 0.000000)
   B->A: 0.010361 (X 0.000000, Y 0.010361, Z 0.000000)
 Oscillator strength (a.u.): 0.000528
 Norm of one-particle transition density matrix:
   A->B: 0.921352;   B->A: 0.928133
   ||gamma^AB||*||gamma^BA||: 0.855138

 ------------------------------------------------------------------------------
 State A: ccsd: 0/A1
 State B: cvs_eomee_ccsd/uhfref: 3/B2
 Transition dipole moment (a.u.):
   A->B: 0.032831 (X 0.000000, Y 0.032831, Z 0.000000)
   B->A: 0.032983 (X 0.000000, Y 0.032983, Z 0.000000)
 Oscillator strength (a.u.): 0.005424
 Norm of one-particle transition density matrix:
   A->B: 0.923028;   B->A: 0.925992
   ||gamma^AB||*||gamma^BA||: 0.854717

 ------------------------------------------------------------------------------
 State A: ccsd: 0/A1
 State B: cvs_eomee_ccsd/uhfref: 4/B2
 Transition dipole moment (a.u.):
   A->B: 0.002282 (X 0.000000, Y 0.002282, Z 0.000000)
   B->A: 0.002288 (X 0.000000, Y 0.002288, Z 0.000000)
 Oscillator strength (a.u.): 0.000026
 Norm of one-particle transition density matrix:
   A->B: 0.882562;   B->A: 0.888053
   ||gamma^AB||*||gamma^BA||: 0.783762

 ------------------------------------------------------------------------------
 State A: ccsd: 0/A1
 State B: cvs_eomee_ccsd/uhfref: 5/B2
 Transition dipole moment (a.u.):
   A->B: 0.009666 (X 0.000000, Y -0.009666, Z 0.000000)
   B->A: 0.009722 (X 0.000000, Y -0.009722, Z 0.000000)
 Oscillator strength (a.u.): 0.000473
 Norm of one-particle transition density matrix:
   A->B: 0.889338;   B->A: 0.896543
   ||gamma^AB||*||gamma^BA||: 0.797329


 All requested transition properties have been computed

 Transition Properties:   CPU 86.03 s  wall 92.58 s

 Total ccman2 time:   CPU 28918.03 s  wall 48497.09 s


 --------------------------------------------------------------
             Orbital Energies (a.u.) and Symmetries
 --------------------------------------------------------------

 Alpha MOs, Unrestricted
 -- Occupied --                  
-105.01  -11.51  -11.51  -11.51  -11.51  -11.50  -11.45  -10.73
  1 A1    1 B1    2 A1    3 A1    2 B1    4 A1    5 A1    6 A1                 
 -8.203  -8.198  -8.198  -1.424  -1.320  -1.295  -1.208  -1.080
  7 A1    3 B1    1 B2    8 A1    9 A1    4 B1   10 A1    5 B1                 
 -1.049  -0.932  -0.880  -0.868  -0.840  -0.787  -0.776  -0.737
 11 A1   12 A1    6 B1   13 A1    7 B1   14 A1    2 B2    8 B1                 
 -0.721  -0.654  -0.635  -0.625  -0.535
 15 A1    3 B2    1 A2    9 B1    4 B2                                         
 -- Virtual --                   
 -0.142  -0.088  -0.087  -0.071  -0.061  -0.042  -0.042  -0.035
  2 A2    5 B2   16 A1   10 B1   17 A1   11 B1   18 A1    6 B2                 
 -0.023  -0.010  -0.007   0.009   0.011   0.015   0.022   0.027
 19 A1   20 A1    3 A2    7 B2   12 B1   21 A1   13 B1   22 A1                 
  0.030   0.033   0.043   0.045   0.045   0.055   0.060   0.066
 23 A1   14 B1    8 B2   24 A1    4 A2   15 B1   25 A1    9 B2                 
  0.074   0.081   0.082   0.103   0.118   0.129   0.141   0.149
 16 B1   10 B2   26 A1   17 B1   27 A1   11 B2   28 A1   18 B1                 
  0.149   0.160   0.168   0.180   0.181   0.185   0.187   0.202
 29 A1   19 B1   30 A1   20 B1   12 B2   31 A1   21 B1   32 A1                 
  0.218   0.237   0.242   0.244   0.249   0.256   0.270   0.277
 22 B1   33 A1   34 A1   23 B1    5 A2   35 A1   24 B1   36 A1                 
  0.286   0.290   0.294   0.335   0.336   0.370   0.374   0.386
 13 B2    6 A2   25 B1    7 A2   37 A1   14 B2   38 A1   26 B1                 
  0.392   0.399   0.401   0.410   0.413   0.449   0.462   0.467
 39 A1   40 A1   15 B2    8 A2   27 B1   41 A1   28 B1   16 B2                 
  0.472   0.483   0.492   0.496   0.509   0.511   0.531   0.539
 42 A1   17 B2   43 A1   29 B1   44 A1   30 B1   45 A1   31 B1                 
  0.542   0.558   0.568   0.595   0.597   0.597   0.615   0.630
  9 A2   46 A1   10 A2   18 B2   32 B1   47 A1   33 B1   48 A1                 
  0.635   0.648   0.681   0.684   0.695   0.702   0.712   0.722
 19 B2   34 B1   35 B1   49 A1   36 B1   11 A2   20 B2   12 A2                 
  0.734   0.752   0.765   0.776   0.778   0.792   0.792   0.797
 50 A1   21 B2   22 B2   23 B2   51 A1   13 A2   37 B1   52 A1                 
  0.806   0.832   0.886   0.902   0.943   0.959   0.968   0.980
 53 A1   54 A1   14 A2   55 A1   24 B2   38 B1   39 B1   15 A2                 
  0.987   1.014   1.092   1.144   1.204   1.240   1.245   1.274
 40 B1   25 B2   56 A1   41 B1   16 A2   26 B2   57 A1   27 B2                 
  1.297   1.298   1.304   1.312   1.321   1.337   1.344   1.363
 42 B1   58 A1   17 A2   59 A1   43 B1   44 B1   60 A1   61 A1                 
  1.392   1.397   1.402   1.424   1.444   1.447   1.458   1.459
 28 B2   45 B1   62 A1   63 A1   64 A1   46 B1   65 A1   47 B1                 
  1.469   1.476   1.486   1.537   1.563   1.568   1.611   1.665
 29 B2   18 A2   19 A2   30 B2   48 B1   66 A1   49 B1   20 A2                 
  1.667   1.696   1.720   1.730   1.739   1.752   1.755   1.816
 67 A1   68 A1   50 B1   31 B2   69 A1   51 B1   70 A1   32 B2                 
  1.832   1.837   1.891   1.897   1.898   1.925   1.947   1.975
 71 A1   52 B1   33 B2   21 A2   53 B1   72 A1   34 B2   22 A2                 
  1.992   2.018   2.061   2.071   2.077   2.132   2.136   2.139
 73 A1   54 B1   74 A1   55 B1   35 B2   56 B1   75 A1   23 A2                 
  2.192   2.204   2.231   2.378   2.408   2.497   2.573   2.592
 76 A1   57 B1   77 A1   24 A2   36 B2   58 B1   78 A1   59 B1                 
  2.603   2.701   2.722   2.756   2.889   2.908   2.953   2.970
 79 A1   60 B1   80 A1   81 A1   82 A1   61 B1   62 B1   83 A1                 
  3.120   3.222   3.367   3.601   4.358
 63 B1   84 A1   64 B1   85 A1   86 A1                                         

 Beta MOs, Unrestricted
 -- Occupied --                  
-105.01  -11.51  -11.50  -11.50  -11.50  -11.50  -11.46  -10.73
  1 A1    2 A1    3 A1    1 B1    2 B1    4 A1    5 A1    6 A1                 
 -8.202  -8.199  -8.199  -1.405  -1.319  -1.242  -1.206  -1.060
  7 A1    1 B2    3 B1    8 A1    9 A1    4 B1   10 A1    5 B1                 
 -1.042  -0.928  -0.874  -0.863  -0.830  -0.788  -0.736  -0.722
 11 A1   12 A1    6 B1   13 A1    7 B1   14 A1    8 B1    2 B2                 
 -0.718  -0.639  -0.625  -0.547
 15 A1    3 B2    9 B1    4 B2                                                 
 -- Virtual --                   
 -0.258  -0.086  -0.073  -0.070  -0.061  -0.051  -0.042  -0.041
  1 A2   16 A1    5 B2   10 B1   17 A1    2 A2   11 B1   18 A1                 
 -0.024  -0.021  -0.011   0.003   0.009   0.012   0.015   0.023
  6 B2   19 A1   20 A1    3 A2    7 B2   12 B1   21 A1   13 B1                 
  0.027   0.030   0.035   0.045   0.051   0.057   0.060   0.061
 22 A1   23 A1   14 B1   24 A1    8 B2   15 B1   25 A1    4 A2                 
  0.066   0.074   0.081   0.081   0.103   0.117   0.144   0.150
  9 B2   16 B1   26 A1   10 B2   17 B1   27 A1   28 A1   29 A1                 
  0.158   0.159   0.162   0.171   0.182   0.184   0.185   0.194
 18 B1   11 B2   19 B1   30 A1   20 B1   31 A1   12 B2   21 B1                 
  0.203   0.222   0.238   0.242   0.245   0.257   0.262   0.275
 32 A1   22 B1   33 A1   34 A1   23 B1    5 A2   35 A1   24 B1                 
  0.277   0.288   0.296   0.297   0.342   0.343   0.374   0.378
 36 A1   13 B2    6 A2   25 B1    7 A2   37 A1   38 A1   14 B2                 
  0.395   0.399   0.399   0.411   0.414   0.420   0.448   0.461
 39 A1   26 B1   40 A1   15 B2   27 B1    8 A2   41 A1   16 B2                 
  0.474   0.476   0.492   0.498   0.501   0.509   0.517   0.533
 28 B1   42 A1   17 B2   43 A1   29 B1   44 A1   30 B1   45 A1                 
  0.543   0.558   0.561   0.588   0.598   0.599   0.600   0.618
 31 B1    9 A2   46 A1   10 A2   18 B2   47 A1   32 B1   33 B1                 
  0.631   0.651   0.652   0.683   0.684   0.697   0.714   0.728
 48 A1   19 B2   34 B1   35 B1   49 A1   36 B1   20 B2   11 A2                 
  0.736   0.737   0.755   0.765   0.779   0.784   0.796   0.798
 50 A1   12 A2   21 B2   22 B2   51 A1   23 B2   37 B1   52 A1                 
  0.801   0.809   0.837   0.889   0.904   0.940   0.959   0.971
 13 A2   53 A1   54 A1   14 A2   55 A1   24 B2   38 B1   39 B1                 
  0.988   0.999   1.018   1.093   1.148   1.222   1.240   1.247
 40 B1   15 A2   25 B2   56 A1   41 B1   16 A2   26 B2   57 A1                 
  1.281   1.298   1.301   1.305   1.311   1.324   1.344   1.346
 27 B2   58 A1   42 B1   17 A2   59 A1   43 B1   60 A1   44 B1                 
  1.364   1.399   1.405   1.413   1.427   1.445   1.451   1.459
 61 A1   28 B2   45 B1   62 A1   63 A1   64 A1   46 B1   65 A1                 
  1.466   1.488   1.496   1.498   1.540   1.568   1.575   1.615
 47 B1   18 A2   29 B2   19 A2   30 B2   48 B1   66 A1   49 B1                 
  1.672   1.679   1.694   1.731   1.736   1.740   1.755   1.756
 67 A1   20 A2   68 A1   31 B2   50 B1   69 A1   51 B1   70 A1                 
  1.816   1.833   1.840   1.895   1.901   1.906   1.924   1.966
 32 B2   71 A1   52 B1   33 B2   53 B1   21 A2   72 A1   34 B2                 
  1.980   1.993   2.029   2.063   2.070   2.082   2.134   2.141
 22 A2   73 A1   54 B1   74 A1   55 B1   35 B2   56 B1   75 A1                 
  2.150   2.193   2.205   2.232   2.389   2.416   2.500   2.575
 23 A2   76 A1   57 B1   77 A1   24 A2   36 B2   58 B1   78 A1                 
  2.597   2.602   2.704   2.724   2.758   2.893   2.916   2.959
 59 B1   79 A1   60 B1   80 A1   81 A1   82 A1   61 B1   62 B1                 
  2.970   3.122   3.222   3.375   3.604   4.363
 83 A1   63 B1   84 A1   64 B1   85 A1   86 A1                                 
 --------------------------------------------------------------

          Ground-State Mulliken Net Atomic Charges

     Atom                 Charge (a.u.)    Spin (a.u.)
  --------------------------------------------------------
      1 H                    -0.294838      -0.025001
      2 C                     0.368148       0.665470
      3 C                     0.850086       0.417439
      4 H                    -0.355527      -0.021772
      5 C                     0.391206      -0.416616
      6 H                    -0.371004       0.004168
      7 C                     0.850086       0.417439
      8 H                    -0.355527      -0.021772
      9 C                     0.368148       0.665470
     10 H                    -0.294838      -0.025001
     11 C                     0.095193      -0.646644
     12 Cl                   -0.251135      -0.013180
  --------------------------------------------------------
  Sum of atomic charges =     1.000000
  Sum of spin   charges =     1.000000

 -----------------------------------------------------------------
                    Cartesian Multipole Moments
 -----------------------------------------------------------------
    Charge (ESU x 10^10)
                 4.8032
    Dipole Moment (Debye)
         X      -0.0000      Y       0.0000      Z      -5.1391
       Tot       5.1391
    Quadrupole Moments (Debye-Ang)
        XX     -28.6783     XY       0.0000     YY     -47.6789
        XZ       0.0000     YZ       0.0000     ZZ     -30.6041
    Octopole Moments (Debye-Ang^2)
       XXX      -0.0000    XXY      -0.0000    XYY      -0.0000
       YYY      -0.0000    XXZ     -12.5260    XYZ      -0.0000
       YYZ       4.0649    XZZ      -0.0000    YZZ       0.0000
       ZZZ     -19.5219
    Hexadecapole Moments (Debye-Ang^3)
      XXXX    -205.3653   XXXY      -0.0000   XXYY     -56.5005
      XYYY       0.0000   YYYY     -51.7431   XXXZ       0.0000
      XXYZ      -0.0000   XYYZ       0.0000   YYYZ       0.0000
      XXZZ    -145.2056   XYZZ       0.0000   YYZZ    -151.0671
      XZZZ       0.0000   YZZZ       0.0000   ZZZZ    -647.6038
 -----------------------------------------------------------------
Archival summary:
1\1\Annas-MBP-3\SP\ProcedureUnspecified\BasisUnspecified\l165(1+,2)\MonSep2403:42:312018MonSep2403:42:312018\0\\#,ProcedureUnspecified,BasisUnspecified,\\1,2\Cl\C,1,1.73093\C,2,1.39121,1,119.398\H,3,1.08039,2,119.798,1,0,0\C,2,1.39121,1,119.398,3,-180,0\H,5,1.08039,2,119.798,1,0,0\C,3,1.39191,2,119.079,1,-180,0\H,7,1.08135,3,119.367,2,180,0\C,5,1.39191,2,119.079,1,180,0\H,9,1.08135,5,119.367,2,-180,0\C,7,1.39245,3,120.451,2,0,0\H,11,1.08085,7,120.132,3,-180,0\\HF=-689.346954\\@

 Total job time:  48695.09s(wall), 29114.12s(cpu) 
 Mon Sep 24 03:42:31 2018

        *************************************************************
        *                                                           *
        *  Thank you very much for using Q-Chem.  Have a nice day.  *
        *                                                           *
        *************************************************************


