annas-macbook-pro-3.local 100.77.254
Q-Chem Developer Version! Running on 100.77.254.*
                  Welcome to Q-Chem
     A Quantum Leap Into The Future Of Chemistry


 Q-Chem 5.1, Q-Chem, Inc., Pleasanton, CA (2018)

 Yihan Shao,  Zhengting Gan,  E. Epifanovsky,  A. T. B. Gilbert,  M. Wormit,  
 J. Kussmann,  A. W. Lange,  A. Behn,  Jia Deng,  Xintian Feng,  D. Ghosh,  
 M. Goldey,  P. R. Horn,  L. D. Jacobson,  I. Kaliman,  T. Kus,  A. Landau,  
 Jie Liu,  E. I. Proynov,  R. M. Richard,  R. P. Steele,  E. J. Sundstrom,  
 H. L. Woodcock III,  P. M. Zimmerman,  D. Zuev,  B. Albrecht,  E. Alguire,  
 S. A. Baeppler,  D. Barton,  Z. Benda,  Y. A. Bernard,  E. J. Berquist,  
 K. B. Bravaya,  H. Burton,  D. Casanova,  Chun-Min Chang,  Yunqing Chen,  
 A. Chien,  K. D. Closser,  M. P. Coons,  S. Coriani,  S. Dasgupta,  
 A. L. Dempwolff,  M. Diedenhofen,  Hainam Do,  R. G. Edgar,  Po-Tung Fang,  
 S. Faraji,  S. Fatehi,  Qingguo Feng,  K. D. Fenk,  J. Fosso-Tande,  
 Qinghui Ge,  A. Ghysels,  G. Gidofalvi,  J. Gomes,  J. Gonthier,  A. Gunina,  
 M. W. D. Hanson-Heine,  P. H. P. Harbach,  A. W. Hauser,  J. E. Herr,  
 E. G. Hohenstein,  Z. C. Holden,  Kerwin Hui,  T.-C. Jagau,  Hyunjun Ji,  
 B. Kaduk,  K. Khistyaev,  Jaehoon Kim,  P. Klunzinger,  K. Koh,  
 D. Kosenkov,  L. Koulias,  T. Kowalczyk,  C. M. Krauter,  A. Kunitsa,  
 Ka Un Lao,  A. Laurent,  K. V. Lawler,  Joonho Lee,  D. Lefrancois,  
 S. Lehtola,  D. S. Levine,  Yi-Pei Li,  You-Sheng Lin,  Fenglai Liu,  
 E. Livshits,  A. Luenser,  P. Manohar,  E. Mansoor,  S. F. Manzer,  
 Shan-Ping Mao,  Yuezhi Mao,  N. Mardirossian,  A. V. Marenich,  
 T. Markovich,  L. A. Martinez-Martinez,  S. A. Maurer,  N. J. Mayhall,  
 S. C. McKenzie,  J.-M. Mewes,  A. F. Morrison,  J. W. Mullinax,  K. Nanda,  
 T. S. Nguyen-Beck,  R. Olivares-Amaya,  J. A. Parkhill,  T. M. Perrine,  
 F. Plasser,  P. Pokhilko,  S. Prager,  A. Prociuk,  E. Ramos,  D. R. Rehn,  
 F. Rob,  M. Schneider,  N. Sergueev,  S. M. Sharada,  S. Sharma,  
 D. W. Small,  T. Stauch,  T. Stein,  Yu-Chuan Su,  A. J. W. Thom,  
 A. Tkatchenko,  T. Tsuchimochi,  N. M. Tubman,  L. Vogt,  M. L. Vidal,  
 O. Vydrov,  M. A. Watson,  J. Wenzel,  M. de Wergifosse,  T. A. Wesolowski,  
 A. White,  J. Witte,  A. Yamada,  Jun Yang,  K. Yao,  S. Yeganeh,  
 S. R. Yost,  Zhi-Qiang You,  A. Zech,  Igor Ying Zhang,  Xing Zhang,  
 Yan Zhao,  Ying Zhu,  B. R. Brooks,  G. K. L. Chan,  C. J. Cramer,  
 M. S. Gordon,  W. J. Hehre,  A. Klamt,  M. W. Schmidt,  C. D. Sherrill,  
 D. G. Truhlar,  A. Aspuru-Guzik,  R. Baer,  A. T. Bell,  N. A. Besley,  
 Jeng-Da Chai,  R. A. DiStasio Jr.,  A. Dreuw,  B. D. Dunietz,  
 T. R. Furlani,  Chao-Ping Hsu,  Yousung Jung,  Jing Kong,  D. S. Lambrecht,  
 WanZhen Liang,  C. Ochsenfeld,  V. A. Rassolov,  L. V. Slipchenko,  
 J. E. Subotnik,  T. Van Voorhis,  J. M. Herbert,  A. I. Krylov,  
 P. M. W. Gill,  M. Head-Gordon

 Contributors to earlier versions of Q-Chem not listed above: 
 R. D. Adamson,  B. Austin,  J. Baker,  G. J. O. Beran,  K. Brandhorst,  
 S. T. Brown,  E. F. C. Byrd,  A. K. Chakraborty,  C.-L. Cheng,  
 Siu Hung Chien,  D. M. Chipman,  D. L. Crittenden,  H. Dachsel,  
 R. J. Doerksen,  A. D. Dutoi,  L. Fusti-Molnar,  W. A. Goddard III,  
 A. Golubeva-Zadorozhnaya,  S. R. Gwaltney,  G. Hawkins,  A. Heyden,  
 S. Hirata,  G. Kedziora,  F. J. Keil,  C. Kelley,  Jihan Kim,  R. A. King,  
 R. Z. Khaliullin,  P. P. Korambath,  W. Kurlancheek,  A. M. Lee,  M. S. Lee,  
 S. V. Levchenko,  Ching Yeh Lin,  D. Liotard,  R. C. Lochan,  I. Lotan,  
 P. E. Maslen,  N. Nair,  D. P. O'Neill,  D. Neuhauser,  E. Neuscamman,  
 C. M. Oana,  R. Olson,  B. Peters,  R. Peverati,  P. A. Pieniazek,  
 Y. M. Rhee,  J. Ritchie,  M. A. Rohrdanz,  E. Rosta,  N. J. Russ,  
 H. F. Schaefer III,  N. E. Schultz,  N. Shenvi,  A. C. Simmonett,  A. Sodt,  
 D. Stuck,  K. S. Thanthiriwatte,  V. Vanovschi,  Tao Wang,  A. Warshel,  
 C. F. Williams,  Q. Wu,  X. Xu,  W. Zhang

 Please cite Q-Chem as follows:
 Y. Shao et al., Mol. Phys. 113, 184-215 (2015)
 DOI: 10.1080/00268976.2014.952696

 Q-Chem 5.1.0 for Mac (Intel) OS X

 Parts of Q-Chem use Armadillo 8.300.2 (Tropical Shenanigans).
 http://arma.sourceforge.net/

 Q-Chem begins on Wed Sep 12 10:02:21 2018  

Annas-MacBook-Pro-3.local
Host: 0

     Scratch files written to /scratch/qchem16433//
Processing $rem in /Users/annakrylov/.qchemrc.
CC_MEMORY  4000
Core orbitals will be frozen

Checking the input file for inconsistencies... 	...done.

--------------------------------------------------------------
User input:
--------------------------------------------------------------
$comment
Optimized Cl-Bz cation, B2 state, XAS of the cation
$end

$molecule
+1 2
H        -2.1651573376    0.0000000000    0.3879499861
C        -1.2470507240    0.0000000000   -0.1801247700
C        -1.2361338652    0.0000000000   -1.5492083889
H        -2.1609781249    0.0000000000   -2.1059158595
C         0.0000000000    0.0000000000   -2.2400161949
H         0.0000000000    0.0000000000   -3.3212297746
C         1.2361338652    0.0000000000   -1.5492083889
H         2.1609781249    0.0000000000   -2.1059158595
C         1.2470507240    0.0000000000   -0.1801247700
H         2.1651573376    0.0000000000    0.3879499861
C         0.0000000000    0.0000000000    0.5119321622
Cl        0.0000000000    0.0000000000    2.1842696329
$end

$rem
   JOB_TYPE  =  SP
   BASIS  =  aug-cc-pVDZ
   METHOD  =  EOM-CCSD
   CVS_EE_STATES = [5,0,4,5]   bright transitions only
!   CC_MEMORY = 80000
   cc_trans_prop = 1
$end

--------------------------------------------------------------
 ----------------------------------------------------------------
             Standard Nuclear Orientation (Angstroms)
    I     Atom           X                Y                Z
 ----------------------------------------------------------------
    1      H      -2.1651573376     0.0000000000     0.4007961907
    2      C      -1.2470507240     0.0000000000    -0.1672785654
    3      C      -1.2361338652    -0.0000000000    -1.5363621843
    4      H      -2.1609781249    -0.0000000000    -2.0930696549
    5      C       0.0000000000    -0.0000000000    -2.2271699903
    6      H       0.0000000000    -0.0000000000    -3.3083835700
    7      C       1.2361338652    -0.0000000000    -1.5363621843
    8      H       2.1609781249    -0.0000000000    -2.0930696549
    9      C       1.2470507240    -0.0000000000    -0.1672785654
   10      H       2.1651573376    -0.0000000000     0.4007961907
   11      C      -0.0000000000     0.0000000000     0.5247783668
   12      Cl     -0.0000000000     0.0000000000     2.1971158375
 ----------------------------------------------------------------
 Molecular Point Group                 C2v   NOp =  4
 Largest Abelian Subgroup              C2v   NOp =  4
 Nuclear Repulsion Energy =   317.2698949856 hartrees
 There are       29 alpha and       28 beta electrons
 Requested basis set is aug-cc-pVDZ
 There are 90 shells and 210 basis functions
MEM_TOTAL is adjusted to CC_MEMORY + MEM_STATIC!
 Total memory of 4192MB is distributed as follows: 
   QALLOC including MEM_STATIC uses 192MB
   MEM_STATIC is set to 192MB
   CCMAN JOB total memory use is  4000MB
 Warning: actual memory use might exceed 4192MB

 Total QAlloc Memory Limit    192 MB
 Mega-Array Size       188 MB
 MEM_STATIC part       192 MB

                       Distance Matrix (Angstroms)
             H (  1)   C (  2)   C (  3)   H (  4)   C (  5)   H (  6)
   C (  2)  1.079643
   C (  3)  2.148410  1.369127
   H (  4)  2.493869  2.131651  1.079472
   C (  5)  3.405013  2.407963  1.416066  2.165135
   H (  6)  4.294871  3.379597  2.160576  2.479277  1.081214
   C (  7)  3.914251  2.835594  2.472268  3.442425  1.416066  2.160576
   H (  8)  4.993477  3.914503  3.442425  4.321956  2.165135  2.479277
   C (  9)  3.459172  2.494101  2.835594  3.914503  2.407963  3.379597
   H ( 10)  4.330315  3.459172  3.914251  4.993477  3.405013  4.294871
   C ( 11)  2.168704  1.426211  2.403399  3.394548  2.751948  3.833162
   Cl( 12)  2.813302  2.673106  3.932796  4.803698  4.424286  5.505499
             C (  7)   H (  8)   C (  9)   H ( 10)   C ( 11)
   H (  8)  1.079472
   C (  9)  1.369127  2.131651
   H ( 10)  2.148410  2.493869  1.079643
   C ( 11)  2.403399  3.394548  1.426211  2.168704
   Cl( 12)  3.932796  4.803698  2.673106  2.813302  1.672337

 A cutoff of  1.0D-14 yielded   4083 shell pairs
 There are     22321 function pairs (     25433 Cartesian)
 Smallest overlap matrix eigenvalue = 2.68E-06

 Scale SEOQF with 1.000000e-01/1.000000e-01/1.000000e-01

 Standard Electronic Orientation quadrupole field applied
 Nucleus-field energy     =    -0.0000000154 hartrees
 Guess from superposition of atomic densities
 Warning:  Energy on first SCF cycle will be non-variational
 SAD guess density has 58.000000 electrons

 -----------------------------------------------------------------------
  General SCF calculation program by
  Eric Jon Sundstrom, Paul Horn, Yuezhi Mao, Dmitri Zuev, Alec White,
  David Stuck, Shaama M.S., Shane Yost, Joonho Lee, David Small,
  Daniel Levine, Susi Lehtola, Hugh Burton, Evgeny Epifanovsky
 -----------------------------------------------------------------------
 Hartree-Fock
 A unrestricted SCF calculation will be
 performed using DIIS
 SCF converges when DIIS error is below 1.0e-08
 ---------------------------------------
  Cycle       Energy         DIIS error
 ---------------------------------------
    1    -692.4329215001      2.21e-02  
    2    -689.2277129919      1.97e-03  
    3    -689.3294695724      1.09e-03  
    4    -689.3566505492      3.40e-04  
    5    -689.3613300717      1.16e-04  
    6    -689.3621593332      6.59e-05  
    7    -689.3626991553      3.98e-05  
    8    -689.3629751834      2.34e-05  
    9    -689.3630854098      1.86e-05  
   10    -689.3631811589      1.65e-05  
   11    -689.3632879186      1.42e-05  
   12    -689.3634572933      9.93e-06  
   13    -689.3635461098      4.91e-06  
   14    -689.3635559740      2.27e-06  
   15    -689.3635584428      1.01e-06  
   16    -689.3635586678      4.70e-07  
   17    -689.3635587339      2.53e-07  
   18    -689.3635587382      1.12e-07  
   19    -689.3635587339      4.36e-08  
   20    -689.3635587328      1.75e-08  
   21    -689.3635587295      7.25e-09  Convergence criterion met
 ---------------------------------------
 SCF time:   CPU 262.12s  wall 267.00s 
 SCF   energy in the final basis set =     -689.3635587295
<S^2> =          0.901448498


 ------------------------------------------------------------------------------

   CCMAN2: suite of methods based on coupled cluster
           and equation of motion theories.

   Components:
   * libvmm-1.3-trunk
     by Evgeny Epifanovsky, Ilya Kaliman.
   * libtensor-2.5-trunk
     by Evgeny Epifanovsky, Michael Wormit, Dmitry Zuev, Sam Manzer, 
        Ilya Kaliman.
   * libcc-2.5-trunk
     by Evgeny Epifanovsky, Arik Landau, Tomasz Kus, Kirill Khistyaev, 
        Dmitry Zuev, Prashant Manohar, Xintian Feng, Anna Krylov, 
        Matthew Goldey, Alec White, Thomas Jagau, Kaushik Nanda, 
        Anastasia Gunina, Alexander Kunitsa, Joonho Lee.

   CCMAN original authors:
   Anna I. Krylov, C. David Sherrill, Steven R. Gwaltney,
   Edward F. C. Byrd (2000)
   Sergey V. Levchenko, Lyudmila V. Slipchenko, Tao Wang,
   Ana-Maria C. Cristian (2003)
   Piotr A. Pieniazek, C. Melania Oana, Evgeny Epifanovsky (2007)
   Prashant Manohar (2009)

 ------------------------------------------------------------------------------


 Calculation will run on 2 cores with 4000MB of RAM.


 Alpha MOs, Unrestricted
 -- Occupied --                  
-105.06  -11.57  -11.49  -11.48  -11.48  -11.46  -11.46  -10.79
  1 A1    2 A1    3 A1    1 B1    4 A1    2 B1    5 A1    6 A1                 
 -8.254  -8.254  -8.250  -1.434  -1.348  -1.254  -1.223  -1.060
  1 B2    7 A1    3 B1    8 A1    9 A1    4 B1   10 A1    5 B1                 
 -1.042  -0.923  -0.868  -0.859  -0.817  -0.807  -0.787  -0.730
 11 A1   12 A1    6 B1   13 A1    7 B1   14 A1    2 B2   15 A1                 
 -0.725  -0.690  -0.661  -0.581  -0.565
  8 B1    3 B2    9 B1    4 B2    1 A2                                         
 -- Virtual --                   
 -0.131  -0.084  -0.082  -0.065  -0.063  -0.041  -0.040  -0.027
  5 B2    2 A2   16 A1   10 B1   17 A1   11 B1   18 A1    6 B2                 
 -0.021  -0.018   0.002   0.003   0.010   0.014   0.026   0.029
 19 A1   20 A1    7 B2    3 A2   21 A1   12 B1   13 B1   22 A1                 
  0.035   0.042   0.042   0.045   0.055   0.055   0.060   0.063
 23 A1   14 B1    8 B2   24 A1   15 B1    4 A2   25 A1    9 B2                 
  0.070   0.073   0.079   0.102   0.113   0.134   0.135   0.146
 16 B1   10 B2   26 A1   17 B1   27 A1   11 B2   28 A1   29 A1                 
  0.161   0.162   0.174   0.181   0.183   0.187   0.196   0.205
 18 B1   19 B1   30 A1   31 A1   20 B1   12 B2   21 B1   32 A1                 
  0.222   0.228   0.237   0.251   0.253   0.266   0.270   0.274
 22 B1   33 A1   34 A1    5 A2   23 B1   35 A1   24 B1   36 A1                 
  0.282   0.284   0.298   0.345   0.347   0.367   0.374   0.384
  6 A2   13 B2   25 B1   37 A1    7 A2   38 A1   14 B2   39 A1                 
  0.396   0.398   0.402   0.411   0.414   0.432   0.451   0.471
 40 A1   26 B1   15 B2   27 B1    8 A2   41 A1   16 B2   42 A1                 
  0.472   0.491   0.493   0.505   0.506   0.520   0.534   0.548
 28 B1   43 A1   17 B2   29 B1   44 A1   30 B1   45 A1   31 B1                 
  0.558   0.565   0.576   0.585   0.604   0.606   0.622   0.632
  9 A2   46 A1   10 A2   18 B2   47 A1   32 B1   33 B1   48 A1                 
  0.642   0.655   0.674   0.682   0.692   0.706   0.721   0.724
 19 B2   34 B1   35 B1   49 A1   36 B1   20 B2   11 A2   50 A1                 
  0.739   0.742   0.759   0.766   0.772   0.789   0.800   0.802
 12 A2   21 B2   22 B2   51 A1   23 B2   52 A1   13 A2   53 A1                 
  0.806   0.837   0.884   0.922   0.926   0.944   0.960   0.988
 37 B1   54 A1   14 A2   24 B2   55 A1   38 B1   39 B1   40 B1                 
  0.997   1.006   1.070   1.167   1.194   1.209   1.249   1.269
 15 A2   25 B2   56 A1   41 B1   26 B2   16 A2   57 A1   42 B1                 
  1.272   1.275   1.279   1.288   1.313   1.343   1.354   1.373
 17 A2   27 B2   58 A1   59 A1   43 B1   60 A1   44 B1   61 A1                 
  1.397   1.411   1.414   1.428   1.445   1.447   1.459   1.469
 28 B2   62 A1   45 B1   63 A1   64 A1   46 B1   65 A1   18 A2                 
  1.472   1.496   1.504   1.535   1.555   1.567   1.614   1.660
 47 B1   29 B2   19 A2   30 B2   66 A1   48 B1   49 B1   67 A1                 
  1.689   1.694   1.726   1.735   1.752   1.753   1.771   1.810
 68 A1   20 A2   31 B2   50 B1   69 A1   51 B1   70 A1   32 B2                 
  1.838   1.849   1.903   1.905   1.910   1.911   1.962   1.966
 52 B1   71 A1   53 B1   33 B2   72 A1   21 A2   22 A2   34 B2                 
  2.002   2.046   2.065   2.070   2.073   2.142   2.143   2.172
 73 A1   54 B1   55 B1   74 A1   35 B2   75 A1   56 B1   23 A2                 
  2.176   2.198   2.231   2.371   2.417   2.511   2.570   2.600
 76 A1   57 B1   77 A1   24 A2   36 B2   58 B1   78 A1   59 B1                 
  2.603   2.712   2.740   2.755   2.886   2.889   2.940   2.947
 79 A1   60 B1   80 A1   81 A1   82 A1   61 B1   83 A1   62 B1                 
  3.113   3.218   3.373   3.590   4.381
 63 B1   84 A1   64 B1   85 A1   86 A1                                         

 Beta MOs, Unrestricted
 -- Occupied --                  
-105.06  -11.57  -11.47  -11.47  -11.47  -11.47  -11.47  -10.79
  1 A1    2 A1    3 A1    1 B1    4 A1    2 B1    5 A1    6 A1                 
 -8.254  -8.249  -8.246  -1.411  -1.336  -1.254  -1.181  -1.053
  7 A1    3 B1    1 B2    8 A1    9 A1    4 B1   10 A1    5 B1                 
 -1.027  -0.917  -0.864  -0.854  -0.818  -0.798  -0.728  -0.721
 11 A1   12 A1    6 B1   13 A1    7 B1   14 A1   15 A1    8 B1                 
 -0.713  -0.657  -0.638  -0.572
  2 B2    9 B1    3 B2    1 A2                                                 
 -- Virtual --                   
 -0.240  -0.082  -0.065  -0.063  -0.062  -0.053  -0.041  -0.040
  4 B2   16 A1   10 B1    2 A2   17 A1    5 B2   11 B1   18 A1                 
 -0.028  -0.020  -0.015   0.004   0.012   0.014   0.015   0.027
  6 B2   19 A1   20 A1    3 A2   21 A1   12 B1    7 B2   13 B1                 
  0.031   0.036   0.042   0.046   0.049   0.055   0.059   0.062
 22 A1   23 A1   14 B1   24 A1    8 B2   15 B1    4 A2   25 A1                 
  0.070   0.070   0.080   0.081   0.102   0.116   0.138   0.150
  9 B2   16 B1   10 B2   26 A1   17 B1   27 A1   28 A1   29 A1                 
  0.157   0.159   0.162   0.177   0.185   0.185   0.193   0.197
 11 B2   18 B1   19 B1   30 A1   20 B1   31 A1   12 B2   21 B1                 
  0.208   0.224   0.232   0.241   0.253   0.254   0.266   0.273
 32 A1   22 B1   33 A1   34 A1   23 B1    5 A2   35 A1   24 B1                 
  0.277   0.284   0.295   0.298   0.349   0.350   0.375   0.378
 36 A1    6 A2   13 B2   25 B1   37 A1    7 A2   14 B2   38 A1                 
  0.394   0.398   0.399   0.409   0.417   0.422   0.437   0.469
 39 A1   26 B1   40 A1   27 B1   15 B2    8 A2   41 A1   16 B2                 
  0.477   0.479   0.493   0.500   0.502   0.513   0.522   0.540
 28 B1   42 A1   43 A1   17 B2   29 B1   44 A1   30 B1   45 A1                 
  0.550   0.559   0.568   0.584   0.600   0.605   0.606   0.623
 31 B1    9 A2   46 A1   10 A2   18 B2   47 A1   32 B1   33 B1                 
  0.636   0.656   0.657   0.679   0.684   0.691   0.720   0.724
 48 A1   19 B2   34 B1   35 B1   49 A1   36 B1   20 B2   11 A2                 
  0.728   0.744   0.760   0.770   0.773   0.783   0.791   0.800
 50 A1   12 A2   21 B2   51 A1   22 B2   23 B2   52 A1   13 A2                 
  0.805   0.807   0.840   0.885   0.927   0.941   0.945   0.961
 53 A1   37 B1   54 A1   14 A2   55 A1   24 B2   38 B1   39 B1                 
  0.989   1.002   1.013   1.072   1.167   1.202   1.222   1.252
 40 B1   15 A2   25 B2   56 A1   41 B1   26 B2   16 A2   57 A1                 
  1.270   1.282   1.284   1.285   1.295   1.319   1.352   1.353
 42 B1   17 A2   27 B2   58 A1   59 A1   43 B1   60 A1   44 B1                 
  1.374   1.403   1.416   1.420   1.435   1.447   1.449   1.462
 61 A1   28 B2   45 B1   62 A1   63 A1   46 B1   64 A1   65 A1                 
  1.478   1.491   1.499   1.505   1.553   1.560   1.571   1.616
 47 B1   18 A2   29 B2   19 A2   30 B2   66 A1   48 B1   49 B1                 
  1.666   1.696   1.700   1.735   1.735   1.754   1.759   1.772
 67 A1   20 A2   68 A1   31 B2   50 B1   51 B1   69 A1   70 A1                 
  1.822   1.841   1.853   1.903   1.908   1.917   1.922   1.974
 32 B2   52 B1   71 A1   53 B1   33 B2   21 A2   72 A1   22 A2                 
  1.974   2.006   2.049   2.066   2.072   2.082   2.142   2.144
 34 B2   73 A1   54 B1   55 B1   74 A1   35 B2   56 B1   75 A1                 
  2.175   2.181   2.200   2.232   2.380   2.422   2.512   2.574
 23 A2   76 A1   57 B1   77 A1   24 A2   36 B2   58 B1   78 A1                 
  2.599   2.606   2.713   2.742   2.757   2.889   2.890   2.947
 59 B1   79 A1   60 B1   80 A1   81 A1   61 B1   82 A1   83 A1                 
  2.951   3.114   3.225   3.375   3.592   4.385
 62 B1   63 B1   84 A1   64 B1   85 A1   86 A1                                 

 Occupation and symmetry of molecular orbitals

 Point group: C2v (4 irreducible representations).

                           A1   A2   B1   B2    All 
 ----------------------------------------------------
 All molecular orbitals:
  - Alpha                  86   24   64   36    210 
  - Beta                   86   24   64   36    210 
 ----------------------------------------------------
 Alpha orbitals:
  - Frozen occupied        7    0    3    1     11  
  - Active occupied        8    1    6    3     18  
  - Active virtual         71   23   55   32    181 
  - Frozen virtual         0    0    0    0     0   
 ----------------------------------------------------
 Beta orbitals:
  - Frozen occupied        7    0    3    1     11  
  - Active occupied        8    1    6    2     17  
  - Active virtual         71   23   55   33    182 
  - Frozen virtual         0    0    0    0     0   
 ----------------------------------------------------

 Import integrals:   CPU 0.00 s  wall 0.00 s

 Import integrals:   CPU 309.06 s  wall 249.33 s

 MP2 amplitudes:   CPU 5.19 s  wall 5.04 s

           CCSD T amplitudes will be solved using DIIS.

           Start     Size      MaxIter   EConv     TConv     
           3         7         100       1.00e-06  1.00e-04  
 ------------------------------------------------------------------------------
           Energy (a.u.)   Ediff      Tdiff       Comment
 ------------------------------------------------------------------------------
          -690.25999210                           
     1    -690.28319821   2.32e-02   9.62e-01     
     2    -690.30950426   2.63e-02   1.21e-01     
     3    -690.31211746   2.61e-03   3.99e-02     
     4    -690.31556682   3.45e-03   1.54e-02     Switched to DIIS steps.
     5    -690.31776824   2.20e-03   1.46e-02     
     6    -690.31831519   5.47e-04   6.02e-03     
     7    -690.31848390   1.69e-04   3.15e-03     
     8    -690.31853514   5.12e-05   1.09e-03     
     9    -690.31855053   1.54e-05   4.29e-04     
    10    -690.31855193   1.40e-06   1.94e-04     
    11    -690.31855131   6.21e-07   1.42e-04     
    12    -690.31855155   2.45e-07   5.87e-05     
 ------------------------------------------------------------------------------
          -690.31855155                           CCSD T converged.

 SCF energy                 = -689.36355873
 MP2 energy                 = -690.25999210
 CCSD correlation energy     =   -0.95499283
 CCSD total energy           = -690.31855155

 CCSD  T1^2 = 0.0466  T2^2 = 0.3957  Leading amplitudes:

 Amplitude    Orbitals with energies
  0.0946       2 (B2) B                  ->    4 (B2) B                   
              -0.7131                         -0.2403                     
 -0.0899       1 (A2) A                  ->    2 (A2) A                   
              -0.5646                         -0.0843                     
  0.0694       1 (A2) B                  ->    2 (A2) B                   
              -0.5725                         -0.0629                     
 -0.0556       3 (B2) A                  ->    5 (B2) A                   
              -0.6901                         -0.1309                     

 Amplitude    Orbitals with energies
 -0.0674       1 (A2) A      1 (A2) B    ->    2 (A2) A      2 (A2) B     
              -0.5646       -0.5725           -0.0843       -0.0629       
  0.0674       1 (A2) A      1 (A2) B    ->    2 (A2) B      2 (A2) A     
              -0.5646       -0.5725           -0.0629       -0.0843       
  0.0674       1 (A2) B      1 (A2) A    ->    2 (A2) A      2 (A2) B     
              -0.5725       -0.5646           -0.0843       -0.0629       
 -0.0674       1 (A2) B      1 (A2) A    ->    2 (A2) B      2 (A2) A     
              -0.5725       -0.5646           -0.0629       -0.0843       

 Computing CCSD intermediates for later calculations
 Finished.

           CCSD Lambda amplitudes will be solved using DIIS.
           Start     Size      MaxIter   EConv     LConv     
           3         7         100       1.00e-06  1.00e-04  
 ------------------------------------------------------------------------------
            Enorm      Ldiff       Comment
 ------------------------------------------------------------------------------
     1     6.72e-02   5.05e-02     
     2     1.53e-02   2.51e-03     
     3     6.85e-03   1.34e-03     
     4     3.97e-03   4.33e-04     Switched to DIIS steps.
     5     1.84e-03   1.83e-04     
     6     9.95e-04   3.43e-05     
     7     4.09e-04   1.16e-04     
     8     1.94e-04   5.06e-05     
     9     9.40e-05   1.50e-05     
    10     5.90e-05   4.31e-07     
    11     2.97e-05   3.30e-06     
    12     1.43e-05   2.89e-06     
    13     6.48e-06   1.33e-06     
    14     3.12e-06   8.01e-07     
    15     1.55e-06   3.33e-07     
    16     8.60e-07   1.86e-07     
 ------------------------------------------------------------------------------
                                   CCSD Lambda converged.

 CCSD calculation:   CPU 2204.15 s  wall 1690.29 s

        Solving for CVS-EOMEE-CCSD A1 transitions.

        CVS-EOMEE-CCSD/MP2 right amplitudes will be solved using Davidson.
        Amplitudes will be solved using standard  algorithm.
     Hard-coded thresholds: 
     LinDepThresh=1.00e-15  NormThresh=1.00e-06  ReorthogonThresh=1.00e-02

      Roots     MaxVec    MaxIter   Precond   Conv      Shift    
      5         120       60        1         1.00e-05  0.00e+00  
 ------------------------------------------------------------------------------
      Iter ConvRoots NVecs ResNorm Current eigenvalues (eV)
 ------------------------------------------------------------------------------
      0    0      5     9.55e-01   212.1201   216.9914   219.6949   219.7045   220.3532   
      1    0      10    3.78e+00   207.6935   212.5303   216.2722   216.2865   216.8073   
      2    0      15    3.06e-02   201.5551   206.0802   210.0561   210.0873   210.8886   
      3    0      20    9.96e-03   201.2124   205.7083   209.5421   209.5957   210.5543   
      4    0      25    1.52e-02   201.1119   205.6505   209.0608   209.2144   210.4306   
      5    0      30    1.76e-02   201.0719   205.6225   207.9887   208.4377   210.1967   
      6    0      35    3.33e-02   201.0616   205.6128   207.2371   207.9143   209.0710   
      7    0      40    2.14e-02   201.0598   205.6086   206.3528   207.3130   208.0651   
      8    0      45    1.16e-02   201.0573   205.6001   205.6784   206.6340   207.5077   
      9    1      50    3.30e-03   201.0573*  205.4690   205.6007   206.3438   207.3117   
      10   1      54    2.22e-03   201.0572*  205.3896   205.5974   206.2075   207.2563   
      11   1      58    3.53e-04   201.0573*  205.3611   205.5962   206.1483   207.2388   
      12   2      62    1.01e-04   201.0573*  205.3542   205.5958*  206.1330   207.2358   
      13   2      65    1.63e-05   201.0573*  205.3538   205.5958*  206.1312   207.2344   
      14   3      68    9.74e-06   201.0573*  205.3537*  205.5958*  206.1310   207.2343   
      15   5      70    4.07e-06   201.0573*  205.3537*  205.5958*  206.1305*  207.2339*  

     Davidson procedure converged

 EOMEE transition 1/A1
 Total energy = -682.92983308 a.u.  Excitation energy = 201.0573 eV.
 R0^2 = 0.0000  R1^2 = 0.8591  R2_CCVV^2 = 0.0019  R2_COVV^2 = 0.0695  Res^2 = 2.48e-07
 Conv-d = yes

 Amplitude    Transitions between orbitals
 -0.8935       1 (B2) B                  ->    4 (B2) B                   
 -0.1757       1 (B2) B                  ->    5 (B2) B                   
  0.0922       1 (B2) B                  ->    11 (B2) B                  
 -0.0862       1 (B2) B                  ->    10 (B2) B                  

              Summary of significant orbitals:

               Number  Type             Irrep      Energy
               11      Occ  Beta        1 (B2)     -8.2463
               29      Vir  Beta        4 (B2)     -0.2403
               34      Vir  Beta        5 (B2)     -0.0531
               55      Vir  Beta       10 (B2)      0.0796
               61      Vir  Beta       11 (B2)      0.1572


 EOMEE transition 2/A1
 Total energy = -682.77194133 a.u.  Excitation energy = 205.3537 eV.
 R0^2 = 0.0000  R1^2 = 0.8900  R2_CCVV^2 = 0.0018  R2_COVV^2 = 0.0541  Res^2 = 8.82e-06
 Conv-d = yes

 Amplitude    Transitions between orbitals
  0.4003       7 (A1) A                  ->    20 (A1) A                  
 -0.2820       7 (A1) A                  ->    21 (A1) A                  
 -0.2646       7 (A1) A                  ->    27 (A1) A                  
 -0.2606       7 (A1) B                  ->    20 (A1) B                  
  0.2548       7 (A1) A                  ->    25 (A1) A                  
 -0.2536       7 (A1) A                  ->    26 (A1) A                  
 -0.2185       7 (A1) B                  ->    27 (A1) B                  
 -0.2077       7 (A1) B                  ->    21 (A1) B                  
  0.2056       7 (A1) A                  ->    18 (A1) A                  
 -0.2047       7 (A1) B                  ->    26 (A1) B                  
  0.1754       7 (A1) B                  ->    25 (A1) B                  
  0.1367       7 (A1) A                  ->    24 (A1) A                  
 -0.1306       7 (A1) A                  ->    22 (A1) A                  
 -0.1257       7 (A1) B                  ->    18 (A1) B                  
  0.1017       7 (A1) A                  ->    36 (A1) A                  

              Summary of significant orbitals:

               Number  Type             Irrep      Energy
               10      Occ  Alpha       7 (A1)     -8.2537
               9       Occ  Beta        7 (A1)     -8.2536
               36      Vir  Alpha      18 (A1)     -0.0402
               39      Vir  Alpha      20 (A1)     -0.0178
               42      Vir  Alpha      21 (A1)      0.0102
               45      Vir  Alpha      22 (A1)      0.0293
               49      Vir  Alpha      24 (A1)      0.0450
               52      Vir  Alpha      25 (A1)      0.0601
               56      Vir  Alpha      26 (A1)      0.0786
               58      Vir  Alpha      27 (A1)      0.1128
               77      Vir  Alpha      36 (A1)      0.2745
               36      Vir  Beta       18 (A1)     -0.0396
               39      Vir  Beta       20 (A1)     -0.0154
               41      Vir  Beta       21 (A1)      0.0118
               52      Vir  Beta       25 (A1)      0.0625
               56      Vir  Beta       26 (A1)      0.0809
               58      Vir  Beta       27 (A1)      0.1160


 EOMEE transition 3/A1
 Total energy = -682.76304492 a.u.  Excitation energy = 205.5958 eV.
 R0^2 = 0.0000  R1^2 = 0.8403  R2_CCVV^2 = 0.0019  R2_COVV^2 = 0.0789  Res^2 = 1.82e-07
 Conv-d = yes

 Amplitude    Transitions between orbitals
  0.8784       1 (B2) A                  ->    5 (B2) A                   
  0.0931       1 (B2) A                  ->    11 (B2) A                  
  0.0810       1 (B2) A                  ->    8 (B2) A                   
 -0.0791       1 (B2) A                  ->    6 (B2) A                   

              Summary of significant orbitals:

               Number  Type             Irrep      Energy
               9       Occ  Alpha       1 (B2)     -8.2541
               30      Vir  Alpha       5 (B2)     -0.1309
               37      Vir  Alpha       6 (B2)     -0.0271
               48      Vir  Alpha       8 (B2)      0.0421
               59      Vir  Alpha      11 (B2)      0.1338


 EOMEE transition 4/A1
 Total energy = -682.74339402 a.u.  Excitation energy = 206.1305 eV.
 R0^2 = 0.0000  R1^2 = 0.8781  R2_CCVV^2 = 0.0021  R2_COVV^2 = 0.0599  Res^2 = 5.91e-06
 Conv-d = yes

 Amplitude    Transitions between orbitals
 -0.3826       7 (A1) B                  ->    20 (A1) B                  
 -0.2938       7 (A1) A                  ->    20 (A1) A                  
 -0.2902       7 (A1) B                  ->    21 (A1) B                  
 -0.2771       7 (A1) B                  ->    27 (A1) B                  
 -0.2690       7 (A1) B                  ->    26 (A1) B                  
  0.2302       7 (A1) B                  ->    25 (A1) B                  
  0.1977       1 (B2) A                  ->    5 (B2) A                   
  0.1964       7 (A1) A                  ->    21 (A1) A                  
 -0.1896       7 (A1) B                  ->    18 (A1) B                  
  0.1665       7 (A1) A                  ->    27 (A1) A                  
 -0.1661       7 (A1) A                  ->    25 (A1) A                  
  0.1655       7 (A1) A                  ->    26 (A1) A                  
 -0.1538       7 (A1) A                  ->    18 (A1) A                  
 -0.1131       7 (A1) B                  ->    22 (A1) B                  
  0.1110       7 (A1) B                  ->    24 (A1) B                  

              Summary of significant orbitals:

               Number  Type             Irrep      Energy
               10      Occ  Alpha       7 (A1)     -8.2537
               9       Occ  Alpha       1 (B2)     -8.2541
               9       Occ  Beta        7 (A1)     -8.2536
               36      Vir  Alpha      18 (A1)     -0.0402
               39      Vir  Alpha      20 (A1)     -0.0178
               42      Vir  Alpha      21 (A1)      0.0102
               52      Vir  Alpha      25 (A1)      0.0601
               56      Vir  Alpha      26 (A1)      0.0786
               58      Vir  Alpha      27 (A1)      0.1128
               30      Vir  Alpha       5 (B2)     -0.1309
               36      Vir  Beta       18 (A1)     -0.0396
               39      Vir  Beta       20 (A1)     -0.0154
               41      Vir  Beta       21 (A1)      0.0118
               45      Vir  Beta       22 (A1)      0.0312
               48      Vir  Beta       24 (A1)      0.0460
               52      Vir  Beta       25 (A1)      0.0625
               56      Vir  Beta       26 (A1)      0.0809
               58      Vir  Beta       27 (A1)      0.1160


 EOMEE transition 5/A1
 Total energy = -682.70284610 a.u.  Excitation energy = 207.2339 eV.
 R0^2 = 0.0000  R1^2 = 0.8229  R2_CCVV^2 = 0.0019  R2_COVV^2 = 0.0876  Res^2 = 5.18e-06
 Conv-d = yes

 Amplitude    Transitions between orbitals
  0.8162       1 (B2) B                  ->    5 (B2) B                   
 -0.2008       1 (B2) B                  ->    4 (B2) B                   
 -0.1832       1 (B2) B                  ->    8 (B2) B                   
 -0.1477       1 (B2) B                  ->    11 (B2) B                  
 -0.1365       1 (B2) B                  ->    7 (B2) B                   
  0.1277       1 (B2) B                  ->    10 (B2) B                  
 -0.1201       1 (B2) B                  ->    9 (B2) B                   

              Summary of significant orbitals:

               Number  Type             Irrep      Energy
               11      Occ  Beta        1 (B2)     -8.2463
               29      Vir  Beta        4 (B2)     -0.2403
               34      Vir  Beta        5 (B2)     -0.0531
               43      Vir  Beta        7 (B2)      0.0146
               49      Vir  Beta        8 (B2)      0.0493
               53      Vir  Beta        9 (B2)      0.0698
               55      Vir  Beta       10 (B2)      0.0796
               61      Vir  Beta       11 (B2)      0.1572


      CVS-EOM-CCSD/MP2 left amplitudes will be solved using Davidson.
        Amplitudes will be solved using MOM  algorithm.
     Hard-coded thresholds: 
     LinDepThresh=1.00e-15  NormThresh=1.00e-06  ReorthogonThresh=1.00e-02

      Roots     MaxVec    MaxIter   Precond   Conv      Shift    
      5         120       60        1         1.00e-05  0.00e+00  
 ------------------------------------------------------------------------------
      Iter ConvRoots NVecs ResNorm Current eigenvalues (eV)
 ------------------------------------------------------------------------------
      0    0      5     2.00e-02   201.0573   205.3537   205.5958   206.1305   207.2339   
      1    0      10    5.21e-02   201.0573   205.3535   205.5958   206.1306   207.2339   
      2    0      15    8.46e-04   201.0573   205.3536   205.5958   206.1306   207.2339   
      3    0      20    1.12e-04   201.0573   205.3535   205.5958   206.1305   207.2338   
      4    0      25    1.90e-05   201.0573   205.3535   205.5958   206.1305   207.2338   
      5    5      30    4.42e-06   201.0573*  205.3535*  205.5958*  206.1305*  207.2338*  

     Davidson procedure converged

        Solving for CVS-EOMEE-CCSD B1 transitions.

        CVS-EOMEE-CCSD/MP2 right amplitudes will be solved using Davidson.
        Amplitudes will be solved using standard  algorithm.
     Hard-coded thresholds: 
     LinDepThresh=1.00e-15  NormThresh=1.00e-06  ReorthogonThresh=1.00e-02

      Roots     MaxVec    MaxIter   Precond   Conv      Shift    
      4         120       60        1         1.00e-05  0.00e+00  
 ------------------------------------------------------------------------------
      Iter ConvRoots NVecs ResNorm Current eigenvalues (eV)
 ------------------------------------------------------------------------------
      0    0      4     9.74e-01   219.2761   219.4924   219.5903   219.6057   
      1    0      8     3.63e+00   214.8161   214.9796   215.9842   215.9937   
      2    0      12    2.85e-02   208.2598   208.2800   209.9238   209.9296   
      3    0      16    9.34e-03   207.9166   207.9419   209.4328   209.4493   
      4    0      20    1.75e-02   207.8664   207.8721   208.9770   209.0096   
      5    0      24    1.81e-02   207.8422   207.8459   207.9955   208.0896   
Found complex roots...
      6    0      28    1.58e-02   207.3597   207.5364   207.8372   207.8372   
Found complex roots...
      7    0      31    2.15e-02   206.4495   206.7780   207.8372   207.8372   
Found complex roots...
      8    2      34    9.53e-03   205.7450   206.0894   207.8369*  207.8369*  
Found complex roots...
      9    2      36    3.24e-03   205.5043   205.8325   207.8369*  207.8369*  
Found complex roots...
      10   2      38    2.13e-03   205.4066   205.7212   207.8369*  207.8369*  
Found complex roots...
      11   2      40    3.04e-04   205.3720   205.6774   207.8369*  207.8369*  
Found complex roots...
      12   2      42    7.68e-05   205.3640   205.6674   207.8369*  207.8369*  
Found complex roots...
      13   2      44    1.50e-05   205.3635   205.6666   207.8369*  207.8369*  
Found complex roots...
      14   2      46    1.03e-05   205.3632   205.6664   207.8369*  207.8369*  
Found complex roots...
      15   4      48    4.80e-06   205.3629*  205.6660*  207.8369*  207.8369*  

     Davidson procedure converged

 EOMEE transition 1/B1
 Total energy = -682.77160192 a.u.  Excitation energy = 205.3629 eV.
 R0^2 = 0.0000  R1^2 = 0.8876  R2_CCVV^2 = 0.0020  R2_COVV^2 = 0.0552  Res^2 = 2.19e-06
 Conv-d = yes

 Amplitude    Transitions between orbitals
  0.4800       3 (B1) A                  ->    20 (A1) A                  
 -0.3319       3 (B1) A                  ->    21 (A1) A                  
 -0.3113       3 (B1) A                  ->    27 (A1) A                  
  0.2998       3 (B1) A                  ->    25 (A1) A                  
 -0.2973       3 (B1) A                  ->    26 (A1) A                  
  0.2494       3 (B1) A                  ->    18 (A1) A                  
  0.1612       3 (B1) A                  ->    24 (A1) A                  
 -0.1530       3 (B1) A                  ->    22 (A1) A                  
 -0.1323       3 (B1) B                  ->    20 (A1) B                  
  0.1149       3 (B1) A                  ->    36 (A1) A                  
 -0.1092       3 (B1) B                  ->    27 (A1) B                  

              Summary of significant orbitals:

               Number  Type             Irrep      Energy
               11      Occ  Alpha       3 (B1)     -8.2501
               10      Occ  Beta        3 (B1)     -8.2491
               36      Vir  Alpha      18 (A1)     -0.0402
               39      Vir  Alpha      20 (A1)     -0.0178
               42      Vir  Alpha      21 (A1)      0.0102
               45      Vir  Alpha      22 (A1)      0.0293
               49      Vir  Alpha      24 (A1)      0.0450
               52      Vir  Alpha      25 (A1)      0.0601
               56      Vir  Alpha      26 (A1)      0.0786
               58      Vir  Alpha      27 (A1)      0.1128
               77      Vir  Alpha      36 (A1)      0.2745
               39      Vir  Beta       20 (A1)     -0.0154
               58      Vir  Beta       27 (A1)      0.1160


 EOMEE transition 2/B1
 Total energy = -682.76046415 a.u.  Excitation energy = 205.6660 eV.
 R0^2 = 0.0000  R1^2 = 0.8860  R2_CCVV^2 = 0.0020  R2_COVV^2 = 0.0560  Res^2 = 3.22e-06
 Conv-d = yes

 Amplitude    Transitions between orbitals
  0.4461       3 (B1) B                  ->    20 (A1) B                  
  0.3461       3 (B1) B                  ->    27 (A1) B                  
  0.3459       3 (B1) B                  ->    21 (A1) B                  
  0.3292       3 (B1) B                  ->    26 (A1) B                  
 -0.2824       3 (B1) B                  ->    25 (A1) B                  
  0.2182       3 (B1) B                  ->    18 (A1) B                  
  0.1470       3 (B1) A                  ->    20 (A1) A                  
  0.1409       3 (B1) B                  ->    22 (A1) B                  
 -0.1385       3 (B1) B                  ->    24 (A1) B                  
 -0.1114       3 (B1) B                  ->    36 (A1) B                  
 -0.1058       3 (B1) A                  ->    21 (A1) A                  
 -0.1044       3 (B1) B                  ->    16 (A1) B                  

              Summary of significant orbitals:

               Number  Type             Irrep      Energy
               11      Occ  Alpha       3 (B1)     -8.2501
               10      Occ  Beta        3 (B1)     -8.2491
               39      Vir  Alpha      20 (A1)     -0.0178
               42      Vir  Alpha      21 (A1)      0.0102
               30      Vir  Beta       16 (A1)     -0.0822
               36      Vir  Beta       18 (A1)     -0.0396
               39      Vir  Beta       20 (A1)     -0.0154
               41      Vir  Beta       21 (A1)      0.0118
               45      Vir  Beta       22 (A1)      0.0312
               48      Vir  Beta       24 (A1)      0.0460
               52      Vir  Beta       25 (A1)      0.0625
               56      Vir  Beta       26 (A1)      0.0809
               58      Vir  Beta       27 (A1)      0.1160
               77      Vir  Beta       36 (A1)      0.2768


 EOMEE transition 3/B1
 Total energy = -682.68068513 a.u.  Excitation energy = 207.8369 eV.
 R0^2 = 0.0000  R1^2 = 0.6577  R2_CCVV^2 = 0.0015  R2_COVV^2 = 0.0694  Res^2 = 6.89e-06
 Conv-d = yes

 Amplitude    Transitions between orbitals
  0.7975       1 (B2) A                  ->    2 (A2) A                   
  0.0992       1 (B2) A                  ->    4 (A2) A                   
  0.0635       1 (B2) A                  ->    3 (A2) A                   
  0.0599       1 (B2) A                  ->    5 (A2) A                   

              Summary of significant orbitals:

               Number  Type             Irrep      Energy
               9       Occ  Alpha       1 (B2)     -8.2541
               31      Vir  Alpha       2 (A2)     -0.0843
               41      Vir  Alpha       3 (A2)      0.0031
               51      Vir  Alpha       4 (A2)      0.0550
               73      Vir  Alpha       5 (A2)      0.2514


 EOMEE transition 4/B1
 Total energy = -682.68068513 a.u.  Excitation energy = 207.8369 eV.
 R0^2 = 0.0000  R1^2 = 0.6577  R2_CCVV^2 = 0.0015  R2_COVV^2 = 0.0694  Res^2 = 6.89e-06
 Conv-d = yes

 Amplitude    Transitions between orbitals
  0.7975       1 (B2) A                  ->    2 (A2) A                   
  0.0992       1 (B2) A                  ->    4 (A2) A                   
  0.0635       1 (B2) A                  ->    3 (A2) A                   
  0.0599       1 (B2) A                  ->    5 (A2) A                   

              Summary of significant orbitals:

               Number  Type             Irrep      Energy
               9       Occ  Alpha       1 (B2)     -8.2541
               31      Vir  Alpha       2 (A2)     -0.0843
               41      Vir  Alpha       3 (A2)      0.0031
               51      Vir  Alpha       4 (A2)      0.0550
               73      Vir  Alpha       5 (A2)      0.2514


      CVS-EOM-CCSD/MP2 left amplitudes will be solved using Davidson.
        Amplitudes will be solved using MOM  algorithm.
     Hard-coded thresholds: 
     LinDepThresh=1.00e-15  NormThresh=1.00e-06  ReorthogonThresh=1.00e-02

      Roots     MaxVec    MaxIter   Precond   Conv      Shift    
      4         120       60        1         1.00e-05  0.00e+00  
Root= 3 Small norm=5.19e-16!
 ------------------------------------------------------------------------------
      Iter ConvRoots NVecs ResNorm Current eigenvalues (eV)
 ------------------------------------------------------------------------------
      0    0      4     2.91e+01   205.3629   205.6660   415.5105   0.1874   
      1    0      8     2.91e+01   205.3630   205.6661   0.0064   415.6716   
      2    0      12    2.91e+01   205.3630   205.6661   0.0000   415.6741   
      3    1      16    2.91e+01   205.3630   205.6661   0.0000*  415.6741   
      4    1      19    2.91e+01   205.3630   205.6661   0.0000*  415.6741   
      5    3      22    2.91e+01   205.3630*  205.6661*  0.0000*  415.6741   
      6    3      23    2.91e+01   205.3630*  205.6661*  0.0000*  415.6741   
      7    3      24    2.91e+01   205.3630*  205.6661*  0.0000*  415.6741   
      8    3      25    2.91e+01   205.3630*  205.6661*  0.0000*  415.6741   
      9    3      26    2.91e+01   205.3630*  205.6661*  0.0000*  415.6741   
      10   3      27    2.91e+01   205.3630*  205.6661*  0.0000*  415.6741   
      11   3      28    2.91e+01   205.3630*  205.6661*  0.0000*  415.6741   
      12   3      29    2.91e+01   205.3630*  205.6661*  0.0000*  415.6741   
      13   3      30    2.91e+01   205.3630*  205.6661*  0.0000*  415.6741   
      14   3      31    2.91e+01   205.3630*  205.6661*  0.0000*  415.6741   
      15   3      32    2.91e+01   205.3630*  205.6661*  0.0000*  415.6741   
      16   3      33    2.91e+01   205.3630*  205.6661*  0.0000*  415.6741   
      17   3      34    2.91e+01   205.3630*  205.6661*  0.0000*  415.6741   
      18   3      35    2.91e+01   205.3630*  205.6661*  0.0000*  415.6741   
      19   3      36    2.91e+01   205.3630*  205.6661*  0.0000*  415.6741   
      20   3      37    2.91e+01   205.3630*  205.6661*  0.0000*  415.6741   
      21   3      38    2.91e+01   205.3630*  205.6661*  0.0000*  415.6741   
      22   3      39    2.91e+01   205.3630*  205.6661*  0.0000*  415.6741   
      23   3      40    2.91e+01   205.3630*  205.6661*  0.0000*  415.6741   
      24   3      41    2.91e+01   205.3630*  205.6661*  0.0000*  415.6741   
      25   3      42    2.91e+01   205.3630*  205.6661*  0.0000*  415.6741   
      26   3      43    2.91e+01   205.3630*  205.6661*  0.0000*  415.6741   
Rerun orthogonalization...
      27   3      44    2.91e+01   205.3630*  205.6661*  0.0000*  415.6741   
      28   3      45    2.91e+01   205.3630*  205.6661*  0.0000*  415.6741   
      29   3      46    2.91e+01   205.3630*  205.6661*  0.0000*  415.6741   
      30   3      47    2.91e+01   205.3630*  205.6661*  0.0000*  415.6741   
      31   3      48    2.91e+01   205.3630*  205.6661*  0.0000*  415.6741   
      32   3      49    2.90e+01   205.3630*  205.6661*  0.0000*  415.6742   
      33   3      50    2.90e+01   205.3630*  205.6661*  0.0000*  415.6742   
      34   3      51    2.89e+01   205.3630*  205.6661*  0.0000*  415.6743   
      35   3      52    2.88e+01   205.3630*  205.6661*  0.0000*  415.6743   
      36   3      53    2.88e+01   205.3630*  205.6661*  0.0000*  415.6743   
      37   3      54    2.84e+01   205.3630*  205.6661*  0.0000*  415.6746   
      38   3      55    2.84e+01   205.3630*  205.6661*  0.0000*  415.6746   
      39   3      56    2.82e+01   205.3630*  205.6661*  0.0000*  415.6746   
      40   3      57    2.79e+01   205.3630*  205.6661*  0.0000*  415.6748   
      41   3      58    2.79e+01   205.3630*  205.6661*  0.0000*  415.6748   
      42   3      59    2.77e+01   205.3630*  205.6661*  0.0000*  415.6748   
      43   3      60    2.73e+01   205.3630*  205.6661*  0.0000*  415.6750   
      44   3      61    1.74e+01   205.3630*  205.6661*  0.0000*  415.6772   
      45   3      62    1.41e+01   205.3630*  205.6661*  0.0000*  415.6703   
      46   3      63    2.85e+01   205.3630*  205.6661*  0.0000*  415.6738   
      47   3      64    4.99e-01   205.3630*  205.6661*  0.0000*  245.7364   
      48   3      65    4.99e-01   205.3630*  205.6661*  0.0000*  245.7367   
      49   3      66    4.78e-01   205.3630*  205.6661*  0.0000*  245.7469   
      50   3      67    4.79e-01   205.3630*  205.6661*  0.0000*  245.7473   
      51   3      68    4.72e-01   205.3630*  205.6661*  0.0000*  245.7502   
      52   3      69    4.74e-01   205.3630*  205.6661*  0.0000*  245.7510   
      53   3      70    4.75e-01   205.3630*  205.6661*  0.0000*  245.7516   
      54   3      71    4.75e-01   205.3630*  205.6661*  0.0000*  245.7517   
      55   3      72    4.71e-01   205.3630*  205.6661*  0.0000*  245.7507   
      56   3      73    4.72e-01   205.3630*  205.6661*  0.0000*  245.7508   
      57   3      74    4.60e-01   205.3630*  205.6661*  0.0000*  245.7485   
      58   3      75    4.80e-01   205.3630*  205.6661*  0.0000*  245.7532   
      59   3      76    4.85e-01   205.3630*  205.6661*  0.0000*  245.7575   

biorthogonolize_left_to_right(): number of left and right states does not match
biorthogonolize_left_to_right(): degenerate block detected, ndeg=2

biorthogonolize_left_to_right(): states mismatch detected: S=-1313288680846.7515  for states  4 and 1
biorthogonolize_left_to_right(): states mismatch detected: S=-182655944781.1754  for states  4 and 2
biorthogonolize_left_to_right(): states mismatch detected: S=232065719.1953  for states  4 and 3
        Solving for CVS-EOMEE-CCSD B2 transitions.

        CVS-EOMEE-CCSD/MP2 right amplitudes will be solved using Davidson.
        Amplitudes will be solved using standard  algorithm.
     Hard-coded thresholds: 
     LinDepThresh=1.00e-15  NormThresh=1.00e-06  ReorthogonThresh=1.00e-02

      Roots     MaxVec    MaxIter   Precond   Conv      Shift    
      5         120       60        1         1.00e-05  0.00e+00  
 ------------------------------------------------------------------------------
      Iter ConvRoots NVecs ResNorm Current eigenvalues (eV)
 ------------------------------------------------------------------------------
      0    0      5     9.84e-01   212.2437   216.9169   219.3616   219.4998   219.7342   
      1    0      10    3.97e+00   208.0405   212.6414   214.8170   215.8957   216.1482   
      2    0      15    3.04e-02   201.6975   206.0979   208.1912   209.8716   210.0104   
      3    0      20    9.72e-03   201.3372   205.7316   207.8497   209.3933   209.4988   
      4    0      25    1.45e-02   201.2347   205.6728   207.7983   208.9502   209.0559   
      5    0      30    1.51e-02   201.1957   205.6472   207.7759   208.0295   208.0805   
      6    0      35    1.24e-02   201.1850   205.6390   207.4270   207.4881   207.7713   
      7    0      40    1.76e-02   201.1831   205.6364   206.5340   206.7502   207.7717   
      8    0      45    1.28e-02   201.1806   205.6309   205.8185   206.0585   207.7608   
      9    1      50    4.21e-03   201.1807*  205.5568   205.6456   205.8045   207.5397   
      10   1      54    2.12e-03   201.1806*  205.4632   205.6368   205.6963   207.4326   
      11   1      58    3.82e-04   201.1806*  205.4285   205.6289   205.6601   207.4064   
      12   1      62    9.26e-05   201.1806*  205.4199   205.6244   205.6541   207.4010   
      13   1      66    2.10e-05   201.1806*  205.4193   205.6240   205.6538   207.3975   
      14   3      70    8.95e-06   201.1806*  205.4191   205.6239*  205.6537*  207.3972   
      15   5      72    4.82e-06   201.1806*  205.4188*  205.6239*  205.6537*  207.3968*  

     Davidson procedure converged

 EOMEE transition 1/B2
 Total energy = -682.92529909 a.u.  Excitation energy = 201.1806 eV.
 R0^2 = 0.0000  R1^2 = 0.8579  R2_CCVV^2 = 0.0018  R2_COVV^2 = 0.0701  Res^2 = 3.06e-07
 Conv-d = yes

 Amplitude    Transitions between orbitals
 -0.8929       7 (A1) B                  ->    4 (B2) B                   
 -0.1784       7 (A1) B                  ->    5 (B2) B                   
  0.0935       7 (A1) B                  ->    11 (B2) B                  
 -0.0883       7 (A1) B                  ->    10 (B2) B                  

              Summary of significant orbitals:

               Number  Type             Irrep      Energy
               9       Occ  Beta        7 (A1)     -8.2536
               29      Vir  Beta        4 (B2)     -0.2403
               34      Vir  Beta        5 (B2)     -0.0531
               55      Vir  Beta       10 (B2)      0.0796
               61      Vir  Beta       11 (B2)      0.1572


 EOMEE transition 2/B2
 Total energy = -682.76955042 a.u.  Excitation energy = 205.4188 eV.
 R0^2 = 0.0000  R1^2 = 0.8844  R2_CCVV^2 = 0.0020  R2_COVV^2 = 0.0568  Res^2 = 2.28e-06
 Conv-d = yes

 Amplitude    Transitions between orbitals
  0.4478       1 (B2) A                  ->    20 (A1) A                  
 -0.3102       1 (B2) A                  ->    21 (A1) A                  
 -0.2908       1 (B2) A                  ->    27 (A1) A                  
  0.2815       1 (B2) A                  ->    25 (A1) A                  
 -0.2801       1 (B2) A                  ->    26 (A1) A                  
  0.2329       1 (B2) A                  ->    18 (A1) A                  
  0.1930       1 (B2) B                  ->    20 (A1) B                  
  0.1558       1 (B2) B                  ->    27 (A1) B                  
  0.1487       1 (B2) A                  ->    24 (A1) A                  
  0.1465       1 (B2) B                  ->    21 (A1) B                  
  0.1462       1 (B2) B                  ->    26 (A1) B                  
 -0.1423       1 (B2) A                  ->    22 (A1) A                  
 -0.1260       1 (B2) B                  ->    25 (A1) B                  
 -0.1222       7 (A1) A                  ->    5 (B2) A                   
  0.1099       1 (B2) A                  ->    36 (A1) A                  

              Summary of significant orbitals:

               Number  Type             Irrep      Energy
               10      Occ  Alpha       7 (A1)     -8.2537
               9       Occ  Alpha       1 (B2)     -8.2541
               11      Occ  Beta        1 (B2)     -8.2463
               36      Vir  Alpha      18 (A1)     -0.0402
               39      Vir  Alpha      20 (A1)     -0.0178
               42      Vir  Alpha      21 (A1)      0.0102
               45      Vir  Alpha      22 (A1)      0.0293
               49      Vir  Alpha      24 (A1)      0.0450
               52      Vir  Alpha      25 (A1)      0.0601
               56      Vir  Alpha      26 (A1)      0.0786
               58      Vir  Alpha      27 (A1)      0.1128
               77      Vir  Alpha      36 (A1)      0.2745
               30      Vir  Alpha       5 (B2)     -0.1309
               39      Vir  Beta       20 (A1)     -0.0154
               41      Vir  Beta       21 (A1)      0.0118
               52      Vir  Beta       25 (A1)      0.0625
               56      Vir  Beta       26 (A1)      0.0809
               58      Vir  Beta       27 (A1)      0.1160


 EOMEE transition 3/B2
 Total energy = -682.76201129 a.u.  Excitation energy = 205.6239 eV.
 R0^2 = 0.0000  R1^2 = 0.8675  R2_CCVV^2 = 0.0019  R2_COVV^2 = 0.0653  Res^2 = 8.49e-06
 Conv-d = yes

 Amplitude    Transitions between orbitals
  0.5651       7 (A1) A                  ->    5 (B2) A                   
  0.3392       1 (B2) B                  ->    20 (A1) B                  
  0.2640       1 (B2) B                  ->    21 (A1) B                  
  0.2627       1 (B2) B                  ->    27 (A1) B                  
  0.2518       1 (B2) B                  ->    26 (A1) B                  
 -0.2156       1 (B2) B                  ->    25 (A1) B                  
  0.1659       1 (B2) B                  ->    18 (A1) B                  
 -0.1332       1 (B2) A                  ->    20 (A1) A                  
  0.1075       1 (B2) B                  ->    22 (A1) B                  
 -0.1035       1 (B2) B                  ->    24 (A1) B                  

              Summary of significant orbitals:

               Number  Type             Irrep      Energy
               10      Occ  Alpha       7 (A1)     -8.2537
               9       Occ  Alpha       1 (B2)     -8.2541
               11      Occ  Beta        1 (B2)     -8.2463
               39      Vir  Alpha      20 (A1)     -0.0178
               30      Vir  Alpha       5 (B2)     -0.1309
               36      Vir  Beta       18 (A1)     -0.0396
               39      Vir  Beta       20 (A1)     -0.0154
               41      Vir  Beta       21 (A1)      0.0118
               45      Vir  Beta       22 (A1)      0.0312
               48      Vir  Beta       24 (A1)      0.0460
               52      Vir  Beta       25 (A1)      0.0625
               56      Vir  Beta       26 (A1)      0.0809
               58      Vir  Beta       27 (A1)      0.1160


 EOMEE transition 4/B2
 Total energy = -682.76091689 a.u.  Excitation energy = 205.6537 eV.
 R0^2 = 0.0000  R1^2 = 0.8650  R2_CCVV^2 = 0.0019  R2_COVV^2 = 0.0665  Res^2 = 7.84e-06
 Conv-d = yes

 Amplitude    Transitions between orbitals
 -0.6105       7 (A1) A                  ->    5 (B2) A                   
  0.2933       1 (B2) B                  ->    20 (A1) B                  
  0.2303       1 (B2) B                  ->    21 (A1) B                  
  0.2260       1 (B2) B                  ->    27 (A1) B                  
  0.2176       1 (B2) B                  ->    26 (A1) B                  
 -0.1884       1 (B2) A                  ->    20 (A1) A                  
 -0.1858       1 (B2) B                  ->    25 (A1) B                  
  0.1421       1 (B2) B                  ->    18 (A1) B                  
  0.1328       1 (B2) A                  ->    21 (A1) A                  
  0.1171       1 (B2) A                  ->    27 (A1) A                  
  0.1152       1 (B2) A                  ->    26 (A1) A                  
 -0.1150       1 (B2) A                  ->    25 (A1) A                  

              Summary of significant orbitals:

               Number  Type             Irrep      Energy
               10      Occ  Alpha       7 (A1)     -8.2537
               9       Occ  Alpha       1 (B2)     -8.2541
               11      Occ  Beta        1 (B2)     -8.2463
               39      Vir  Alpha      20 (A1)     -0.0178
               42      Vir  Alpha      21 (A1)      0.0102
               52      Vir  Alpha      25 (A1)      0.0601
               56      Vir  Alpha      26 (A1)      0.0786
               58      Vir  Alpha      27 (A1)      0.1128
               30      Vir  Alpha       5 (B2)     -0.1309
               36      Vir  Beta       18 (A1)     -0.0396
               39      Vir  Beta       20 (A1)     -0.0154
               41      Vir  Beta       21 (A1)      0.0118
               52      Vir  Beta       25 (A1)      0.0625
               56      Vir  Beta       26 (A1)      0.0809
               58      Vir  Beta       27 (A1)      0.1160


 EOMEE transition 5/B2
 Total energy = -682.69685933 a.u.  Excitation energy = 207.3968 eV.
 R0^2 = 0.0000  R1^2 = 0.8214  R2_CCVV^2 = 0.0018  R2_COVV^2 = 0.0884  Res^2 = 5.21e-06
 Conv-d = yes

 Amplitude    Transitions between orbitals
  0.8144       7 (A1) B                  ->    5 (B2) B                   
 -0.2066       7 (A1) B                  ->    4 (B2) B                   
 -0.1815       7 (A1) B                  ->    8 (B2) B                   
 -0.1489       7 (A1) B                  ->    11 (B2) B                  
 -0.1400       7 (A1) B                  ->    7 (B2) B                   
  0.1301       7 (A1) B                  ->    10 (B2) B                  
 -0.1190       7 (A1) B                  ->    9 (B2) B                   

              Summary of significant orbitals:

               Number  Type             Irrep      Energy
               9       Occ  Beta        7 (A1)     -8.2536
               29      Vir  Beta        4 (B2)     -0.2403
               34      Vir  Beta        5 (B2)     -0.0531
               43      Vir  Beta        7 (B2)      0.0146
               49      Vir  Beta        8 (B2)      0.0493
               53      Vir  Beta        9 (B2)      0.0698
               55      Vir  Beta       10 (B2)      0.0796
               61      Vir  Beta       11 (B2)      0.1572


      CVS-EOM-CCSD/MP2 left amplitudes will be solved using Davidson.
        Amplitudes will be solved using MOM  algorithm.
     Hard-coded thresholds: 
     LinDepThresh=1.00e-15  NormThresh=1.00e-06  ReorthogonThresh=1.00e-02

      Roots     MaxVec    MaxIter   Precond   Conv      Shift    
      5         120       60        1         1.00e-05  0.00e+00  
 ------------------------------------------------------------------------------
      Iter ConvRoots NVecs ResNorm Current eigenvalues (eV)
 ------------------------------------------------------------------------------
      0    0      5     2.03e-02   201.1806   205.4188   205.6239   205.6537   207.3968   
      1    0      10    5.05e-02   201.1807   205.4188   205.6237   205.6535   207.3968   
      2    0      15    9.40e-04   201.1807   205.4189   205.6238   205.6536   207.3968   
      3    0      20    1.11e-04   201.1807   205.4188   205.6238   205.6536   207.3967   
      4    0      25    2.14e-05   201.1807   205.4188   205.6238   205.6536   207.3967   
      5    5      30    4.58e-06   201.1807*  205.4188*  205.6238*  205.6536*  207.3967*  

     Davidson procedure converged

 CVS-EOMEE-CCSD calculation:   CPU 49106.73 s  wall 49476.55 s


 Start computing the transition properties

 ------------------------------------------------------------------------------
 State A: ccsd: 0/A1
 State B: cvs_eomee_ccsd/uhfref: 1/A1
 Transition dipole moment (a.u.):
   A->B: 0.005710 (X 0.000000, Y 0.000000, Z 0.005710)
   B->A: 0.005703 (X 0.000000, Y 0.000000, Z 0.005703)
 Oscillator strength (a.u.): 0.000160
 Norm of one-particle transition density matrix:
   A->B: 0.901305;   B->A: 0.915970
   ||gamma^AB||*||gamma^BA||: 0.825568

 ------------------------------------------------------------------------------
 State A: ccsd: 0/A1
 State B: cvs_eomee_ccsd/uhfref: 2/A1
 Transition dipole moment (a.u.):
   A->B: 0.001808 (X 0.000000, Y 0.000000, Z 0.001808)
   B->A: 0.001581 (X 0.000000, Y 0.000000, Z 0.001581)
 Oscillator strength (a.u.): 0.000014
 Norm of one-particle transition density matrix:
   A->B: 0.917773;   B->A: 0.927686
   ||gamma^AB||*||gamma^BA||: 0.851405

 ------------------------------------------------------------------------------
 State A: ccsd: 0/A1
 State B: cvs_eomee_ccsd/uhfref: 3/A1
 Transition dipole moment (a.u.):
   A->B: 0.007496 (X 0.000000, Y 0.000000, Z -0.007496)
   B->A: 0.007270 (X 0.000000, Y 0.000000, Z -0.007270)
 Oscillator strength (a.u.): 0.000274
 Norm of one-particle transition density matrix:
   A->B: 0.880760;   B->A: 0.897331
   ||gamma^AB||*||gamma^BA||: 0.790334

 ------------------------------------------------------------------------------
 State A: ccsd: 0/A1
 State B: cvs_eomee_ccsd/uhfref: 4/A1
 Transition dipole moment (a.u.):
   A->B: 0.009645 (X 0.000000, Y 0.000000, Z -0.009645)
   B->A: 0.009141 (X 0.000000, Y 0.000000, Z -0.009141)
 Oscillator strength (a.u.): 0.000445
 Norm of one-particle transition density matrix:
   A->B: 0.914165;   B->A: 0.920540
   ||gamma^AB||*||gamma^BA||: 0.841526

 ------------------------------------------------------------------------------
 State A: ccsd: 0/A1
 State B: cvs_eomee_ccsd/uhfref: 5/A1
 Transition dipole moment (a.u.):
   A->B: 0.008990 (X 0.000000, Y 0.000000, Z -0.008990)
   B->A: 0.009086 (X 0.000000, Y 0.000000, Z -0.009086)
 Oscillator strength (a.u.): 0.000415
 Norm of one-particle transition density matrix:
   A->B: 0.894224;   B->A: 0.879251
   ||gamma^AB||*||gamma^BA||: 0.786248

 ------------------------------------------------------------------------------
 State A: ccsd: 0/A1
 State B: cvs_eomee_ccsd/uhfref: 1/B1
 Transition dipole moment (a.u.):
   A->B: 0.018160 (X -0.018160, Y 0.000000, Z 0.000000)
   B->A: 0.018692 (X -0.018692, Y 0.000000, Z 0.000000)
 Oscillator strength (a.u.): 0.001708
 Norm of one-particle transition density matrix:
   A->B: 0.916523;   B->A: 0.942281
   ||gamma^AB||*||gamma^BA||: 0.863622

 ------------------------------------------------------------------------------
 State A: ccsd: 0/A1
 State B: cvs_eomee_ccsd/uhfref: 2/B1
 Transition dipole moment (a.u.):
   A->B: 0.034659 (X -0.034659, Y 0.000000, Z 0.000000)
   B->A: 0.035461 (X -0.035461, Y 0.000000, Z 0.000000)
 Oscillator strength (a.u.): 0.006193
 Norm of one-particle transition density matrix:
   A->B: 0.917459;   B->A: 0.941582
   ||gamma^AB||*||gamma^BA||: 0.863862

 ------------------------------------------------------------------------------
 State A: ccsd: 0/A1
 State B: cvs_eomee_ccsd/uhfref: 3/B1
 Transition dipole moment (a.u.):
   A->B: 0.005219 (X -0.005219, Y 0.000000, Z 0.000000)
   B->A: 0.003299 (X -0.003299, Y 0.000000, Z 0.000000)
 Oscillator strength (a.u.): 0.000088
 Norm of one-particle transition density matrix:
   A->B: 1.113022;   B->A: 0.720718
   ||gamma^AB||*||gamma^BA||: 0.802175

 ------------------------------------------------------------------------------
 State A: ccsd: 0/A1
 State B: cvs_eomee_ccsd/uhfref: 4/B1
 Transition dipole moment (a.u.):
   A->B: 0.000000 (X 0.000000, Y 0.000000, Z 0.000000)
   B->A: 62852649524971.812500 (X -62852649524971.812500, Y -2131.723529, Z 1957.106941)
 Oscillator strength (a.u.): -0.000218
 Norm of one-particle transition density matrix:
   A->B: 0.000000;   B->A: 58492991319617632.000000
   ||gamma^AB||*||gamma^BA||: 8.148612

 ------------------------------------------------------------------------------
 State A: ccsd: 0/A1
 State B: cvs_eomee_ccsd/uhfref: 1/B2
 Transition dipole moment (a.u.):
   A->B: 0.005771 (X 0.000000, Y 0.005771, Z 0.000000)
   B->A: 0.005993 (X 0.000000, Y 0.005993, Z 0.000000)
 Oscillator strength (a.u.): 0.000170
 Norm of one-particle transition density matrix:
   A->B: 0.900715;   B->A: 0.915263
   ||gamma^AB||*||gamma^BA||: 0.824391

 ------------------------------------------------------------------------------
 State A: ccsd: 0/A1
 State B: cvs_eomee_ccsd/uhfref: 2/B2
 Transition dipole moment (a.u.):
   A->B: 0.010841 (X 0.000000, Y 0.010841, Z 0.000000)
   B->A: 0.011559 (X 0.000000, Y 0.011559, Z 0.000000)
 Oscillator strength (a.u.): 0.000631
 Norm of one-particle transition density matrix:
   A->B: 0.914096;   B->A: 0.925189
   ||gamma^AB||*||gamma^BA||: 0.845711

 ------------------------------------------------------------------------------
 State A: ccsd: 0/A1
 State B: cvs_eomee_ccsd/uhfref: 3/B2
 Transition dipole moment (a.u.):
   A->B: 0.020369 (X 0.000000, Y -0.020369, Z 0.000000)
   B->A: 0.016195 (X 0.000000, Y -0.016195, Z 0.000000)
 Oscillator strength (a.u.): 0.001662
 Norm of one-particle transition density matrix:
   A->B: 0.903201;   B->A: 0.917261
   ||gamma^AB||*||gamma^BA||: 0.828472

 ------------------------------------------------------------------------------
 State A: ccsd: 0/A1
 State B: cvs_eomee_ccsd/uhfref: 4/B2
 Transition dipole moment (a.u.):
   A->B: 0.032819 (X 0.000000, Y -0.032819, Z 0.000000)
   B->A: 0.031290 (X 0.000000, Y -0.031290, Z 0.000000)
 Oscillator strength (a.u.): 0.005174
 Norm of one-particle transition density matrix:
   A->B: 0.900807;   B->A: 0.915492
   ||gamma^AB||*||gamma^BA||: 0.824682

 ------------------------------------------------------------------------------
 State A: ccsd: 0/A1
 State B: cvs_eomee_ccsd/uhfref: 5/B2
 Transition dipole moment (a.u.):
   A->B: 0.008804 (X 0.000000, Y -0.008804, Z 0.000000)
   B->A: 0.008963 (X 0.000000, Y -0.008963, Z 0.000000)
 Oscillator strength (a.u.): 0.000401
 Norm of one-particle transition density matrix:
   A->B: 0.893322;   B->A: 0.878388
   ||gamma^AB||*||gamma^BA||: 0.784683


 All requested transition properties have been computed

 Transition Properties:   CPU 151.49 s  wall 124.50 s

 Total ccman2 time:   CPU 51805.88 s  wall 51562.85 s


 --------------------------------------------------------------
             Orbital Energies (a.u.) and Symmetries
 --------------------------------------------------------------

 Alpha MOs, Unrestricted
 -- Occupied --                  
-105.06  -11.57  -11.49  -11.48  -11.48  -11.46  -11.46  -10.79
  1 A1    2 A1    3 A1    1 B1    4 A1    2 B1    5 A1    6 A1                 
 -8.254  -8.254  -8.250  -1.434  -1.348  -1.254  -1.223  -1.060
  1 B2    7 A1    3 B1    8 A1    9 A1    4 B1   10 A1    5 B1                 
 -1.042  -0.923  -0.868  -0.859  -0.817  -0.807  -0.787  -0.730
 11 A1   12 A1    6 B1   13 A1    7 B1   14 A1    2 B2   15 A1                 
 -0.725  -0.690  -0.661  -0.581  -0.565
  8 B1    3 B2    9 B1    4 B2    1 A2                                         
 -- Virtual --                   
 -0.131  -0.084  -0.082  -0.065  -0.063  -0.041  -0.040  -0.027
  5 B2    2 A2   16 A1   10 B1   17 A1   11 B1   18 A1    6 B2                 
 -0.021  -0.018   0.002   0.003   0.010   0.014   0.026   0.029
 19 A1   20 A1    7 B2    3 A2   21 A1   12 B1   13 B1   22 A1                 
  0.035   0.042   0.042   0.045   0.055   0.055   0.060   0.063
 23 A1   14 B1    8 B2   24 A1   15 B1    4 A2   25 A1    9 B2                 
  0.070   0.073   0.079   0.102   0.113   0.134   0.135   0.146
 16 B1   10 B2   26 A1   17 B1   27 A1   11 B2   28 A1   29 A1                 
  0.161   0.162   0.174   0.181   0.183   0.187   0.196   0.205
 18 B1   19 B1   30 A1   31 A1   20 B1   12 B2   21 B1   32 A1                 
  0.222   0.228   0.237   0.251   0.253   0.266   0.270   0.274
 22 B1   33 A1   34 A1    5 A2   23 B1   35 A1   24 B1   36 A1                 
  0.282   0.284   0.298   0.345   0.347   0.367   0.374   0.384
  6 A2   13 B2   25 B1   37 A1    7 A2   38 A1   14 B2   39 A1                 
  0.396   0.398   0.402   0.411   0.414   0.432   0.451   0.471
 40 A1   26 B1   15 B2   27 B1    8 A2   41 A1   16 B2   42 A1                 
  0.472   0.491   0.493   0.505   0.506   0.520   0.534   0.548
 28 B1   43 A1   17 B2   29 B1   44 A1   30 B1   45 A1   31 B1                 
  0.558   0.565   0.576   0.585   0.604   0.606   0.622   0.632
  9 A2   46 A1   10 A2   18 B2   47 A1   32 B1   33 B1   48 A1                 
  0.642   0.655   0.674   0.682   0.692   0.706   0.721   0.724
 19 B2   34 B1   35 B1   49 A1   36 B1   20 B2   11 A2   50 A1                 
  0.739   0.742   0.759   0.766   0.772   0.789   0.800   0.802
 12 A2   21 B2   22 B2   51 A1   23 B2   52 A1   13 A2   53 A1                 
  0.806   0.837   0.884   0.922   0.926   0.944   0.960   0.988
 37 B1   54 A1   14 A2   24 B2   55 A1   38 B1   39 B1   40 B1                 
  0.997   1.006   1.070   1.167   1.194   1.209   1.249   1.269
 15 A2   25 B2   56 A1   41 B1   26 B2   16 A2   57 A1   42 B1                 
  1.272   1.275   1.279   1.288   1.313   1.343   1.354   1.373
 17 A2   27 B2   58 A1   59 A1   43 B1   60 A1   44 B1   61 A1                 
  1.397   1.411   1.414   1.428   1.445   1.447   1.459   1.469
 28 B2   62 A1   45 B1   63 A1   64 A1   46 B1   65 A1   18 A2                 
  1.472   1.496   1.504   1.535   1.555   1.567   1.614   1.660
 47 B1   29 B2   19 A2   30 B2   66 A1   48 B1   49 B1   67 A1                 
  1.689   1.694   1.726   1.735   1.752   1.753   1.771   1.810
 68 A1   20 A2   31 B2   50 B1   69 A1   51 B1   70 A1   32 B2                 
  1.838   1.849   1.903   1.905   1.910   1.911   1.962   1.966
 52 B1   71 A1   53 B1   33 B2   72 A1   21 A2   22 A2   34 B2                 
  2.002   2.046   2.065   2.070   2.073   2.142   2.143   2.172
 73 A1   54 B1   55 B1   74 A1   35 B2   75 A1   56 B1   23 A2                 
  2.176   2.198   2.231   2.371   2.417   2.511   2.570   2.600
 76 A1   57 B1   77 A1   24 A2   36 B2   58 B1   78 A1   59 B1                 
  2.603   2.712   2.740   2.755   2.886   2.889   2.940   2.947
 79 A1   60 B1   80 A1   81 A1   82 A1   61 B1   83 A1   62 B1                 
  3.113   3.218   3.373   3.590   4.381
 63 B1   84 A1   64 B1   85 A1   86 A1                                         

 Beta MOs, Unrestricted
 -- Occupied --                  
-105.06  -11.57  -11.47  -11.47  -11.47  -11.47  -11.47  -10.79
  1 A1    2 A1    3 A1    1 B1    4 A1    2 B1    5 A1    6 A1                 
 -8.254  -8.249  -8.246  -1.411  -1.336  -1.254  -1.181  -1.053
  7 A1    3 B1    1 B2    8 A1    9 A1    4 B1   10 A1    5 B1                 
 -1.027  -0.917  -0.864  -0.854  -0.818  -0.798  -0.728  -0.721
 11 A1   12 A1    6 B1   13 A1    7 B1   14 A1   15 A1    8 B1                 
 -0.713  -0.657  -0.638  -0.572
  2 B2    9 B1    3 B2    1 A2                                                 
 -- Virtual --                   
 -0.240  -0.082  -0.065  -0.063  -0.062  -0.053  -0.041  -0.040
  4 B2   16 A1   10 B1    2 A2   17 A1    5 B2   11 B1   18 A1                 
 -0.028  -0.020  -0.015   0.004   0.012   0.014   0.015   0.027
  6 B2   19 A1   20 A1    3 A2   21 A1   12 B1    7 B2   13 B1                 
  0.031   0.036   0.042   0.046   0.049   0.055   0.059   0.062
 22 A1   23 A1   14 B1   24 A1    8 B2   15 B1    4 A2   25 A1                 
  0.070   0.070   0.080   0.081   0.102   0.116   0.138   0.150
  9 B2   16 B1   10 B2   26 A1   17 B1   27 A1   28 A1   29 A1                 
  0.157   0.159   0.162   0.177   0.185   0.185   0.193   0.197
 11 B2   18 B1   19 B1   30 A1   20 B1   31 A1   12 B2   21 B1                 
  0.208   0.224   0.232   0.241   0.253   0.254   0.266   0.273
 32 A1   22 B1   33 A1   34 A1   23 B1    5 A2   35 A1   24 B1                 
  0.277   0.284   0.295   0.298   0.349   0.350   0.375   0.378
 36 A1    6 A2   13 B2   25 B1   37 A1    7 A2   14 B2   38 A1                 
  0.394   0.398   0.399   0.409   0.417   0.422   0.437   0.469
 39 A1   26 B1   40 A1   27 B1   15 B2    8 A2   41 A1   16 B2                 
  0.477   0.479   0.493   0.500   0.502   0.513   0.522   0.540
 28 B1   42 A1   43 A1   17 B2   29 B1   44 A1   30 B1   45 A1                 
  0.550   0.559   0.568   0.584   0.600   0.605   0.606   0.623
 31 B1    9 A2   46 A1   10 A2   18 B2   47 A1   32 B1   33 B1                 
  0.636   0.656   0.657   0.679   0.684   0.691   0.720   0.724
 48 A1   19 B2   34 B1   35 B1   49 A1   36 B1   20 B2   11 A2                 
  0.728   0.744   0.760   0.770   0.773   0.783   0.791   0.800
 50 A1   12 A2   21 B2   51 A1   22 B2   23 B2   52 A1   13 A2                 
  0.805   0.807   0.840   0.885   0.927   0.941   0.945   0.961
 53 A1   37 B1   54 A1   14 A2   55 A1   24 B2   38 B1   39 B1                 
  0.989   1.002   1.013   1.072   1.167   1.202   1.222   1.252
 40 B1   15 A2   25 B2   56 A1   41 B1   26 B2   16 A2   57 A1                 
  1.270   1.282   1.284   1.285   1.295   1.319   1.352   1.353
 42 B1   17 A2   27 B2   58 A1   59 A1   43 B1   60 A1   44 B1                 
  1.374   1.403   1.416   1.420   1.435   1.447   1.449   1.462
 61 A1   28 B2   45 B1   62 A1   63 A1   46 B1   64 A1   65 A1                 
  1.478   1.491   1.499   1.505   1.553   1.560   1.571   1.616
 47 B1   18 A2   29 B2   19 A2   30 B2   66 A1   48 B1   49 B1                 
  1.666   1.696   1.700   1.735   1.735   1.754   1.759   1.772
 67 A1   20 A2   68 A1   31 B2   50 B1   51 B1   69 A1   70 A1                 
  1.822   1.841   1.853   1.903   1.908   1.917   1.922   1.974
 32 B2   52 B1   71 A1   53 B1   33 B2   21 A2   72 A1   22 A2                 
  1.974   2.006   2.049   2.066   2.072   2.082   2.142   2.144
 34 B2   73 A1   54 B1   55 B1   74 A1   35 B2   56 B1   75 A1                 
  2.175   2.181   2.200   2.232   2.380   2.422   2.512   2.574
 23 A2   76 A1   57 B1   77 A1   24 A2   36 B2   58 B1   78 A1                 
  2.599   2.606   2.713   2.742   2.757   2.889   2.890   2.947
 59 B1   79 A1   60 B1   80 A1   81 A1   61 B1   82 A1   83 A1                 
  2.951   3.114   3.225   3.375   3.592   4.385
 62 B1   63 B1   84 A1   64 B1   85 A1   86 A1                                 
 --------------------------------------------------------------

          Ground-State Mulliken Net Atomic Charges

     Atom                 Charge (a.u.)    Spin (a.u.)
  --------------------------------------------------------
      1 H                    -0.321924      -0.025969
      2 C                     0.514456       0.380375
      3 C                     0.901854      -0.572306
      4 H                    -0.364045       0.002935
      5 C                     0.269937       0.969377
      6 H                    -0.378064      -0.029417
      7 C                     0.901854      -0.572306
      8 H                    -0.364045       0.002935
      9 C                     0.514456       0.380375
     10 H                    -0.321924      -0.025969
     11 C                    -0.267364       0.337288
     12 Cl                   -0.085189       0.152681
  --------------------------------------------------------
  Sum of atomic charges =     1.000000
  Sum of spin   charges =     1.000000

 -----------------------------------------------------------------
                    Cartesian Multipole Moments
 -----------------------------------------------------------------
    Charge (ESU x 10^10)
                 4.8032
    Dipole Moment (Debye)
         X       0.0000      Y      -0.0000      Z      -3.1281
       Tot       3.1281
    Quadrupole Moments (Debye-Ang)
        XX     -32.8709     XY       0.0000     YY     -47.7982
        XZ       0.0000     YZ      -0.0000     ZZ     -25.4417
    Octopole Moments (Debye-Ang^2)
       XXX      -0.0000    XXY      -0.0000    XYY      -0.0000
       YYY      -0.0000    XXZ      -7.5966    XYZ       0.0000
       YYZ       5.9144    XZZ       0.0000    YZZ      -0.0000
       ZZZ     -14.4711
    Hexadecapole Moments (Debye-Ang^3)
      XXXX    -230.8223   XXXY      -0.0000   XXYY     -63.4149
      XYYY       0.0000   YYYY     -52.1668   XXXZ      -0.0000
      XXYZ      -0.0000   XYYZ       0.0000   YYYZ      -0.0000
      XXZZ    -147.6050   XYZZ       0.0000   YYZZ    -140.3630
      XZZZ       0.0000   YZZZ       0.0000   ZZZZ    -579.1553
 -----------------------------------------------------------------
Archival summary:
1\1\Annas-MacBook-Pro-3.local\SP\ProcedureUnspecified\BasisUnspecified\l165(1+,2)\ThuSep1300:26:152018ThuSep1300:26:152018\0\\#,ProcedureUnspecified,BasisUnspecified,\\1,2\Cl\C,1,1.67234\C,2,1.42621,1,119.028\H,3,1.07964,2,119.225,1,-0,0\C,3,1.36913,2,118.571,1,-180,0\H,5,1.07947,3,120.589,2,-180,0\C,5,1.41607,3,119.655,2,-0,0\H,7,1.08121,5,119.198,3,-180,0\C,7,1.41607,5,121.603,3,-0,0\H,9,1.07947,7,119.756,5,180,0\C,9,1.36913,7,119.655,5,0,0\H,11,1.07964,9,122.204,7,180,0\\HF=-689.363559\\@

 Total job time:  51834.05s(wall), 52072.03s(cpu) 
 Thu Sep 13 00:26:15 2018

        *************************************************************
        *                                                           *
        *  Thank you very much for using Q-Chem.  Have a nice day.  *
        *                                                           *
        *************************************************************


