Q-Chem Developer Version!
                  Welcome to Q-Chem
     A Quantum Leap Into The Future Of Chemistry


 Q-Chem 5.1, Q-Chem, Inc., Pleasanton, CA (2018)

 Yihan Shao,  Zhengting Gan,  E. Epifanovsky,  A. T. B. Gilbert,  M. Wormit,  
 J. Kussmann,  A. W. Lange,  A. Behn,  Jia Deng,  Xintian Feng,  D. Ghosh,  
 M. Goldey,  P. R. Horn,  L. D. Jacobson,  I. Kaliman,  T. Kus,  A. Landau,  
 Jie Liu,  E. I. Proynov,  R. M. Richard,  R. P. Steele,  E. J. Sundstrom,  
 H. L. Woodcock III,  P. M. Zimmerman,  D. Zuev,  B. Albrecht,  E. Alguire,  
 S. A. Baeppler,  D. Barton,  Z. Benda,  Y. A. Bernard,  E. J. Berquist,  
 K. B. Bravaya,  H. Burton,  D. Casanova,  Chun-Min Chang,  Yunqing Chen,  
 A. Chien,  K. D. Closser,  M. P. Coons,  S. Coriani,  S. Dasgupta,  
 A. L. Dempwolff,  M. Diedenhofen,  Hainam Do,  R. G. Edgar,  Po-Tung Fang,  
 S. Faraji,  S. Fatehi,  Qingguo Feng,  K. D. Fenk,  J. Fosso-Tande,  
 Qinghui Ge,  A. Ghysels,  G. Gidofalvi,  J. Gomes,  J. Gonthier,  A. Gunina,  
 D. Hait,  M. W. D. Hanson-Heine,  P. H. P. Harbach,  A. W. Hauser,  
 J. E. Herr,  E. G. Hohenstein,  Z. C. Holden,  Kerwin Hui,  B. C. Huynh,  
 T.-C. Jagau,  Hyunjun Ji,  B. Kaduk,  K. Khistyaev,  Jaehoon Kim,  
 P. Klunzinger,  K. Koh,  D. Kosenkov,  L. Koulias,  T. Kowalczyk,  
 C. M. Krauter,  A. Kunitsa,  Ka Un Lao,  A. Laurent,  K. V. Lawler,  
 Joonho Lee,  D. Lefrancois,  S. Lehtola,  D. S. Levine,  Yi-Pei Li,  
 You-Sheng Lin,  Fenglai Liu,  E. Livshits,  A. Luenser,  P. Manohar,  
 E. Mansoor,  S. F. Manzer,  Shan-Ping Mao,  Yuezhi Mao,  N. Mardirossian,  
 A. V. Marenich,  T. Markovich,  L. A. Martinez-Martinez,  S. A. Maurer,  
 N. J. Mayhall,  S. C. McKenzie,  J.-M. Mewes,  A. F. Morrison,  
 J. W. Mullinax,  K. Nanda,  T. S. Nguyen-Beck,  R. Olivares-Amaya,  
 J. A. Parkhill,  T. M. Perrine,  F. Plasser,  P. Pokhilko,  S. Prager,  
 A. Prociuk,  E. Ramos,  D. R. Rehn,  F. Rob,  M. Schneider,  N. Sergueev,  
 S. M. Sharada,  S. Sharma,  D. W. Small,  T. Stauch,  T. Stein,  
 Yu-Chuan Su,  A. J. W. Thom,  A. Tkatchenko,  T. Tsuchimochi,  N. M. Tubman,  
 L. Vogt,  M. L. Vidal,  O. Vydrov,  M. A. Watson,  J. Wenzel,  
 M. de Wergifosse,  T. A. Wesolowski,  A. White,  J. Witte,  A. Yamada,  
 Jun Yang,  K. Yao,  S. Yeganeh,  S. R. Yost,  Zhi-Qiang You,  A. Zech,  
 Igor Ying Zhang,  Xing Zhang,  Yan Zhao,  Ying Zhu,  B. R. Brooks,  
 G. K. L. Chan,  C. J. Cramer,  M. S. Gordon,  W. J. Hehre,  A. Klamt,  
 M. W. Schmidt,  C. D. Sherrill,  D. G. Truhlar,  A. Aspuru-Guzik,  R. Baer,  
 A. T. Bell,  N. A. Besley,  Jeng-Da Chai,  A. E. DePrince, III,  
 R. A. DiStasio Jr.,  A. Dreuw,  B. D. Dunietz,  T. R. Furlani,  
 Chao-Ping Hsu,  Yousung Jung,  Jing Kong,  D. S. Lambrecht,  WanZhen Liang,  
 C. Ochsenfeld,  V. A. Rassolov,  L. V. Slipchenko,  J. E. Subotnik,  
 T. Van Voorhis,  J. M. Herbert,  A. I. Krylov,  P. M. W. Gill,  M. Head-Gordon

 Contributors to earlier versions of Q-Chem not listed above: 
 R. D. Adamson,  B. Austin,  J. Baker,  G. J. O. Beran,  K. Brandhorst,  
 S. T. Brown,  E. F. C. Byrd,  A. K. Chakraborty,  C.-L. Cheng,  
 Siu Hung Chien,  D. M. Chipman,  D. L. Crittenden,  H. Dachsel,  
 R. J. Doerksen,  A. D. Dutoi,  L. Fusti-Molnar,  W. A. Goddard III,  
 A. Golubeva-Zadorozhnaya,  S. R. Gwaltney,  G. Hawkins,  A. Heyden,  
 S. Hirata,  G. Kedziora,  F. J. Keil,  C. Kelley,  Jihan Kim,  R. A. King,  
 R. Z. Khaliullin,  P. P. Korambath,  W. Kurlancheek,  A. M. Lee,  M. S. Lee,  
 S. V. Levchenko,  Ching Yeh Lin,  D. Liotard,  R. C. Lochan,  I. Lotan,  
 P. E. Maslen,  N. Nair,  D. P. O'Neill,  D. Neuhauser,  E. Neuscamman,  
 C. M. Oana,  R. Olson,  B. Peters,  R. Peverati,  P. A. Pieniazek,  
 Y. M. Rhee,  J. Ritchie,  M. A. Rohrdanz,  E. Rosta,  N. J. Russ,  
 H. F. Schaefer III,  N. E. Schultz,  N. Shenvi,  A. C. Simmonett,  A. Sodt,  
 D. Stuck,  K. S. Thanthiriwatte,  V. Vanovschi,  Tao Wang,  A. Warshel,  
 C. F. Williams,  Q. Wu,  X. Xu,  W. Zhang

 Please cite Q-Chem as follows:
 Y. Shao et al., Mol. Phys. 113, 184-215 (2015)
 DOI: 10.1080/00268976.2014.952696

 Q-Chem 5.1.1 for Intel X86 EM64T Linux

 Parts of Q-Chem use Armadillo 8.300.2 (Tropical Shenanigans).
 http://arma.sourceforge.net/

 Q-Chem begins on Sun Oct 14 00:22:51 2018  

node24
Host: 0

     Scratch files written to /scratch/krylov/qchem5061//
Core orbitals will be frozen
Input Ideriv = 0
Curr. Ideriv = -1
Max.  Ideriv = 0

Checking the input file for inconsistencies... 	...done.

--------------------------------------------------------------
User input:
--------------------------------------------------------------
$comment
Optimized Cl-Bz, XAS
$end

$molecule
0 1
 H        -2.1400320233    0.0000000000    0.5090177858
 C        -1.2120583232    0.0000000000   -0.0442490642
 C        -1.2042956497    0.0000000000   -1.4361358281
 H        -2.1437187877    0.0000000000   -1.9716770234
 C         0.0000000000    0.0000000000   -2.1351330277
 H         0.0000000000    0.0000000000   -3.2159870334
 C         1.2042956497    0.0000000000   -1.4361358281
 H         2.1437187877    0.0000000000   -1.9716770234
 C         1.2120583232    0.0000000000   -0.0442490642
 H         2.1400320233    0.0000000000    0.5090177858
 C         0.0000000000    0.0000000000    0.6386615242
 Cl        0.0000000000    0.0000000000    2.3695929760
$end

$rem
   JOB_TYPE  =  SP
   BASIS  =  6-311(2+,+)G**
   METHOD  =  EOM-CCSD
   CVS_EE_STATES = [6,0,6,6]
   CC_MEMORY = 80000
   cc_trans_prop = 1
   PRINT_GENERAL_BASIS = true
$end

--------------------------------------------------------------
 ----------------------------------------------------------------
             Standard Nuclear Orientation (Angstroms)
    I     Atom           X                Y                Z
 ----------------------------------------------------------------
    1      H      -2.1400320233     0.0000000000     0.3814604176
    2      C      -1.2120583232     0.0000000000    -0.1718064324
    3      C      -1.2042956497     0.0000000000    -1.5636931963
    4      H      -2.1437187877     0.0000000000    -2.0992343916
    5      C      -0.0000000000     0.0000000000    -2.2626903959
    6      H      -0.0000000000     0.0000000000    -3.3435444016
    7      C       1.2042956497     0.0000000000    -1.5636931963
    8      H       2.1437187877     0.0000000000    -2.0992343916
    9      C       1.2120583232    -0.0000000000    -0.1718064324
   10      H       2.1400320233    -0.0000000000     0.3814604176
   11      C       0.0000000000    -0.0000000000     0.5111041560
   12      Cl      0.0000000000    -0.0000000000     2.2420356078
 ----------------------------------------------------------------
 Molecular Point Group                 C2v   NOp =  4
 Largest Abelian Subgroup              C2v   NOp =  4
 Nuclear Repulsion Energy =   316.4076139427 hartrees
 There are       29 alpha and       29 beta electrons
 Requested basis set is 6-311(2+,+)G(d,p)
Basis set in general basis input format:
-----------------------------------------------------------------------
$basis
H    0
S    3    1.000000
   3.38650000E+01    2.54938000E-02 
   5.09479000E+00    1.90373000E-01 
   1.15879000E+00    8.52161000E-01 
S    1    1.000000
   3.25840000E-01    1.00000000E+00 
S    1    1.000000
   1.02741000E-01    1.00000000E+00 
S    1    1.000000
   3.60000000E-02    1.00000000E+00 
P    1    1.000000
   7.50000000E-01    1.00000000E+00 
****
C    0
S    6    1.000000
   4.56324000E+03    1.96665000E-03 
   6.82024000E+02    1.52306000E-02 
   1.54973000E+02    7.61269000E-02 
   4.44553000E+01    2.60801000E-01 
   1.30290000E+01    6.16462000E-01 
   1.82773000E+00    2.21006000E-01 
SP   3    1.000000
   2.09642000E+01    1.14660000E-01   4.02487000E-02 
   4.80331000E+00    9.19999000E-01   2.37594000E-01 
   1.45933000E+00   -3.03068000E-03   8.15854000E-01 
SP   1    1.000000
   4.83456000E-01    1.00000000E+00   1.00000000E+00 
SP   1    1.000000
   1.45585000E-01    1.00000000E+00   1.00000000E+00 
SP   1    1.000000
   4.38000000E-02    1.00000000E+00   1.00000000E+00 
SP   1    1.000000
   1.31927711E-02    1.00000000E+00   1.00000000E+00 
D    1    1.000000
   6.26000000E-01    1.00000000E+00 
****
C    0
S    6    1.000000
   4.56324000E+03    1.96665000E-03 
   6.82024000E+02    1.52306000E-02 
   1.54973000E+02    7.61269000E-02 
   4.44553000E+01    2.60801000E-01 
   1.30290000E+01    6.16462000E-01 
   1.82773000E+00    2.21006000E-01 
SP   3    1.000000
   2.09642000E+01    1.14660000E-01   4.02487000E-02 
   4.80331000E+00    9.19999000E-01   2.37594000E-01 
   1.45933000E+00   -3.03068000E-03   8.15854000E-01 
SP   1    1.000000
   4.83456000E-01    1.00000000E+00   1.00000000E+00 
SP   1    1.000000
   1.45585000E-01    1.00000000E+00   1.00000000E+00 
SP   1    1.000000
   4.38000000E-02    1.00000000E+00   1.00000000E+00 
SP   1    1.000000
   1.31927711E-02    1.00000000E+00   1.00000000E+00 
D    1    1.000000
   6.26000000E-01    1.00000000E+00 
****
H    0
S    3    1.000000
   3.38650000E+01    2.54938000E-02 
   5.09479000E+00    1.90373000E-01 
   1.15879000E+00    8.52161000E-01 
S    1    1.000000
   3.25840000E-01    1.00000000E+00 
S    1    1.000000
   1.02741000E-01    1.00000000E+00 
S    1    1.000000
   3.60000000E-02    1.00000000E+00 
P    1    1.000000
   7.50000000E-01    1.00000000E+00 
****
C    0
S    6    1.000000
   4.56324000E+03    1.96665000E-03 
   6.82024000E+02    1.52306000E-02 
   1.54973000E+02    7.61269000E-02 
   4.44553000E+01    2.60801000E-01 
   1.30290000E+01    6.16462000E-01 
   1.82773000E+00    2.21006000E-01 
SP   3    1.000000
   2.09642000E+01    1.14660000E-01   4.02487000E-02 
   4.80331000E+00    9.19999000E-01   2.37594000E-01 
   1.45933000E+00   -3.03068000E-03   8.15854000E-01 
SP   1    1.000000
   4.83456000E-01    1.00000000E+00   1.00000000E+00 
SP   1    1.000000
   1.45585000E-01    1.00000000E+00   1.00000000E+00 
SP   1    1.000000
   4.38000000E-02    1.00000000E+00   1.00000000E+00 
SP   1    1.000000
   1.31927711E-02    1.00000000E+00   1.00000000E+00 
D    1    1.000000
   6.26000000E-01    1.00000000E+00 
****
H    0
S    3    1.000000
   3.38650000E+01    2.54938000E-02 
   5.09479000E+00    1.90373000E-01 
   1.15879000E+00    8.52161000E-01 
S    1    1.000000
   3.25840000E-01    1.00000000E+00 
S    1    1.000000
   1.02741000E-01    1.00000000E+00 
S    1    1.000000
   3.60000000E-02    1.00000000E+00 
P    1    1.000000
   7.50000000E-01    1.00000000E+00 
****
C    0
S    6    1.000000
   4.56324000E+03    1.96665000E-03 
   6.82024000E+02    1.52306000E-02 
   1.54973000E+02    7.61269000E-02 
   4.44553000E+01    2.60801000E-01 
   1.30290000E+01    6.16462000E-01 
   1.82773000E+00    2.21006000E-01 
SP   3    1.000000
   2.09642000E+01    1.14660000E-01   4.02487000E-02 
   4.80331000E+00    9.19999000E-01   2.37594000E-01 
   1.45933000E+00   -3.03068000E-03   8.15854000E-01 
SP   1    1.000000
   4.83456000E-01    1.00000000E+00   1.00000000E+00 
SP   1    1.000000
   1.45585000E-01    1.00000000E+00   1.00000000E+00 
SP   1    1.000000
   4.38000000E-02    1.00000000E+00   1.00000000E+00 
SP   1    1.000000
   1.31927711E-02    1.00000000E+00   1.00000000E+00 
D    1    1.000000
   6.26000000E-01    1.00000000E+00 
****
H    0
S    3    1.000000
   3.38650000E+01    2.54938000E-02 
   5.09479000E+00    1.90373000E-01 
   1.15879000E+00    8.52161000E-01 
S    1    1.000000
   3.25840000E-01    1.00000000E+00 
S    1    1.000000
   1.02741000E-01    1.00000000E+00 
S    1    1.000000
   3.60000000E-02    1.00000000E+00 
P    1    1.000000
   7.50000000E-01    1.00000000E+00 
****
C    0
S    6    1.000000
   4.56324000E+03    1.96665000E-03 
   6.82024000E+02    1.52306000E-02 
   1.54973000E+02    7.61269000E-02 
   4.44553000E+01    2.60801000E-01 
   1.30290000E+01    6.16462000E-01 
   1.82773000E+00    2.21006000E-01 
SP   3    1.000000
   2.09642000E+01    1.14660000E-01   4.02487000E-02 
   4.80331000E+00    9.19999000E-01   2.37594000E-01 
   1.45933000E+00   -3.03068000E-03   8.15854000E-01 
SP   1    1.000000
   4.83456000E-01    1.00000000E+00   1.00000000E+00 
SP   1    1.000000
   1.45585000E-01    1.00000000E+00   1.00000000E+00 
SP   1    1.000000
   4.38000000E-02    1.00000000E+00   1.00000000E+00 
SP   1    1.000000
   1.31927711E-02    1.00000000E+00   1.00000000E+00 
D    1    1.000000
   6.26000000E-01    1.00000000E+00 
****
H    0
S    3    1.000000
   3.38650000E+01    2.54938000E-02 
   5.09479000E+00    1.90373000E-01 
   1.15879000E+00    8.52161000E-01 
S    1    1.000000
   3.25840000E-01    1.00000000E+00 
S    1    1.000000
   1.02741000E-01    1.00000000E+00 
S    1    1.000000
   3.60000000E-02    1.00000000E+00 
P    1    1.000000
   7.50000000E-01    1.00000000E+00 
****
C    0
S    6    1.000000
   4.56324000E+03    1.96665000E-03 
   6.82024000E+02    1.52306000E-02 
   1.54973000E+02    7.61269000E-02 
   4.44553000E+01    2.60801000E-01 
   1.30290000E+01    6.16462000E-01 
   1.82773000E+00    2.21006000E-01 
SP   3    1.000000
   2.09642000E+01    1.14660000E-01   4.02487000E-02 
   4.80331000E+00    9.19999000E-01   2.37594000E-01 
   1.45933000E+00   -3.03068000E-03   8.15854000E-01 
SP   1    1.000000
   4.83456000E-01    1.00000000E+00   1.00000000E+00 
SP   1    1.000000
   1.45585000E-01    1.00000000E+00   1.00000000E+00 
SP   1    1.000000
   4.38000000E-02    1.00000000E+00   1.00000000E+00 
SP   1    1.000000
   1.31927711E-02    1.00000000E+00   1.00000000E+00 
D    1    1.000000
   6.26000000E-01    1.00000000E+00 
****
Cl   0
S    6    1.000000
   1.05819000E+05    7.38000000E-04 
   1.58720000E+04    5.71800000E-03 
   3.61965000E+03    2.94950000E-02 
   1.03080000E+03    1.17286000E-01 
   3.39908000E+02    3.62949000E-01 
   1.24538000E+02    5.84149000E-01 
S    3    1.000000
   1.24538000E+02    1.34177000E-01 
   4.95135000E+01    6.24250000E-01 
   2.08056000E+01    2.91756000E-01 
S    1    1.000000
   6.58346000E+00    1.00000000E+00 
S    1    1.000000
   2.56468000E+00    1.00000000E+00 
S    1    1.000000
   5.59763000E-01    1.00000000E+00 
S    1    1.000000
   1.83273000E-01    1.00000000E+00 
P    5    1.000000
   5.89776000E+02    2.39100000E-03 
   1.39849000E+02    1.85040000E-02 
   4.51413000E+01    8.13770000E-02 
   1.68733000E+01    2.21552000E-01 
   6.74110000E+00    7.72569000E-01 
P    2    1.000000
   6.74110000E+00   -1.57224400E+00 
   2.77152000E+00    9.92389000E-01 
P    1    1.000000
   1.02387000E+00    1.00000000E+00 
P    1    1.000000
   3.81368000E-01    1.00000000E+00 
P    1    1.000000
   1.09437000E-01    1.00000000E+00 
SP   1    1.000000
   4.83000000E-02    1.00000000E+00   1.00000000E+00 
SP   1    1.000000
   1.45481928E-02    1.00000000E+00   1.00000000E+00 
D    1    1.000000
   7.50000000E-01    1.00000000E+00 
****
$end
-----------------------------------------------------------------------
 There are 81 shells and 225 basis functions
MEM_TOTAL is adjusted to CC_MEMORY + MEM_STATIC!
 Total memory of 80192MB is distributed as follows: 
   QALLOC including MEM_STATIC uses 192MB
   MEM_STATIC is set to 192MB
   CCMAN JOB total memory use is  80000MB
 Warning: actual memory use might exceed 80192MB

 Total QAlloc Memory Limit    192 MB
 Mega-Array Size       188 MB
 MEM_STATIC part       192 MB

                       Distance Matrix (Angstroms)
             H (  1)   C (  2)   C (  3)   H (  4)   C (  5)   H (  6)
   C (  2)  1.080389
   C (  3)  2.158524  1.391908
   H (  4)  2.480698  2.140787  1.081351
   C (  5)  3.401657  2.416791  1.392453  2.149941
   H (  6)  4.295975  3.395439  2.148999  2.478677  1.080854
   C (  7)  3.868869  2.788569  2.408591  3.390576  1.392453  2.148999
   H (  8)  4.950189  3.869912  3.390576  4.287438  2.149941  2.478677
   C (  9)  3.397442  2.424117  2.788569  3.869912  2.416791  3.395439
   H ( 10)  4.280064  3.397442  3.868869  4.950189  3.401657  4.295975
   C ( 11)  2.143955  1.391205  2.398981  3.377780  2.773795  3.854649
   Cl( 12)  2.835750  2.701059  3.991729  4.841710  4.504726  5.585580
             C (  7)   H (  8)   C (  9)   H ( 10)   C ( 11)
   H (  8)  1.081351
   C (  9)  1.391908  2.140787
   H ( 10)  2.158524  2.480698  1.080389
   C ( 11)  2.398981  3.377780  1.391205  2.143955
   Cl( 12)  3.991729  4.841710  2.701059  2.835750  1.730931

 A cutoff of  1.0D-14 yielded   3174 shell pairs
 There are     25127 function pairs (     26740 Cartesian)

 -------------------------------------------------------
 OpenMP Integral Computing Module                       
 Release: version 1.0, May 2013, Q-Chem Inc. Pittsburgh 
 -------------------------------------------------------
 Integral Job Info:
 Integral job number is                      11
 Integral operator is                         1
 short-range coefficients                     0
 long-range coefficients              100000000
 Omega coefficients                           0
 if combine SR and LR in K                    0
 Integral screening is                        0
 Integral computing path is                   2
 max size of driver memory is            800000
 size of driver memory is                593474
 size of scratch memory is              8114252
 max col of scratch BK array               1296
 max len of scratch array in speh3          155
 max len of scratch index in speh4           18
 max int batch size is                      520
 min int batch size is                       52
 fixed nKL is                                52
 max L of basis functions is                  2
 order of int derivative is                   0
 number of shells is                         81
 number of basis is                         232
 number of cartesian basis is               232
 number of contracted shell pairs          3174
 number of primitive shell pairs           7860
 maxK2 (contraction) of shell pair           36
 max number of K2 of shell pair               1
 max number of CS2 of shell pair            515
 max number of PS2 of shell pair           1092
 mem total for path MDJ                  543004
 -------------------------------------------------------
 Smallest overlap matrix eigenvalue = 1.05E-08
 Linear dependence detected in AO basis
 Tighter screening thresholds may be required for diffuse basis sets
 Use S2THRESH > 14 and THRESH = 14 in case of SCF convergence issues
 Number of orthogonalized atomic orbitals = 218
 Maximum deviation from orthogonality = 1.308E-10

 Scale SEOQF with 1.000000e-01/1.000000e-01/1.000000e-01

 Standard Electronic Orientation quadrupole field applied
 Nucleus-field energy     =    -0.0000000161 hartrees
 Guess from superposition of atomic densities
 Warning:  Energy on first SCF cycle will be non-variational
 SAD guess density has 58.000000 electrons

 -----------------------------------------------------------------------
  General SCF calculation program by
  Eric Jon Sundstrom, Paul Horn, Yuezhi Mao, Dmitri Zuev, Alec White,
  David Stuck, Shaama M.S., Shane Yost, Joonho Lee, David Small,
  Daniel Levine, Susi Lehtola, Hugh Burton, Evgeny Epifanovsky
 -----------------------------------------------------------------------
 Hartree-Fock
 using 8 threads for integral computing
 -------------------------------------------------------
 OpenMP Integral computing Module                
 Release: version 2.0, May 2017, Q-Chem Inc. Pleasanton 
 -------------------------------------------------------
 A restricted SCF calculation will be
 performed using DIIS
 SCF converges when DIIS error is below 1.0e-08
 ---------------------------------------
  Cycle       Energy         DIIS error
 ---------------------------------------
    1    -692.4820641161      4.30e-02  
    2    -689.5989293311      3.04e-03  
    3    -689.6677607788      1.35e-03  
    4    -689.6777307757      5.84e-04  
    5    -689.6803293129      1.04e-04  
    6    -689.6804189458      3.23e-05  
    7    -689.6804327132      1.15e-05  
    8    -689.6804350639      4.71e-06  
    9    -689.6804355657      1.94e-06  
   10    -689.6804356477      8.95e-07  
   11    -689.6804356793      3.37e-07  
   12    -689.6804356835      6.88e-08  
   13    -689.6804356784      1.51e-08  
   14    -689.6804356880      4.48e-09  Convergence criterion met
 ---------------------------------------
 SCF time:   CPU 59.24s  wall 8.00s 
 SCF   energy in the final basis set =     -689.6804356880
 Total energy in the final basis set =     -689.6804356880


 ------------------------------------------------------------------------------

   CCMAN2: suite of methods based on coupled cluster
           and equation of motion theories.

   Components:
   * libvmm-1.3-trunk
     by Evgeny Epifanovsky, Ilya Kaliman.
   * libtensor-2.5-trunk
     by Evgeny Epifanovsky, Michael Wormit, Dmitry Zuev, Sam Manzer, 
        Ilya Kaliman.
   * libcc-2.5-trunk
     by Evgeny Epifanovsky, Arik Landau, Tomasz Kus, Kirill Khistyaev, 
        Dmitry Zuev, Prashant Manohar, Xintian Feng, Anna Krylov, 
        Matthew Goldey, Alec White, Thomas Jagau, Kaushik Nanda, 
        Anastasia Gunina, Alexander Kunitsa, Joonho Lee.

   CCMAN original authors:
   Anna I. Krylov, C. David Sherrill, Steven R. Gwaltney,
   Edward F. C. Byrd (2000)
   Sergey V. Levchenko, Lyudmila V. Slipchenko, Tao Wang,
   Ana-Maria C. Cristian (2003)
   Piotr A. Pieniazek, C. Melania Oana, Evgeny Epifanovsky (2007)
   Prashant Manohar (2009)

 ------------------------------------------------------------------------------


 Allocating and initializing 80000MB of RAM...
 Calculation will run on 8 cores.


 Alpha MOs, Restricted
 -- Occupied --                  
-104.84  -11.31  -11.25  -11.25  -11.25  -11.25  -11.25  -10.57
  1 A1    2 A1    3 A1    1 B1    4 A1    2 B1    5 A1    6 A1                 
 -8.034  -8.031  -8.031  -1.196  -1.124  -1.036  -1.000  -0.850
  7 A1    3 B1    1 B2    8 A1    9 A1    4 B1   10 A1    5 B1                 
 -0.823  -0.715  -0.651  -0.651  -0.607  -0.593  -0.547  -0.520
 11 A1   12 A1    6 B1   13 A1    7 B1   14 A1    2 B2    8 B1                 
 -0.515  -0.471  -0.456  -0.354  -0.338
 15 A1    3 B2    9 B1    1 A2    4 B2                                         
 -- Virtual --                   
  0.014   0.020   0.021   0.032   0.032   0.033   0.043   0.044
 16 A1   10 B1   17 A1    5 B2   18 A1   11 B1    2 A2    6 B2                 
  0.045   0.048   0.054   0.055   0.056   0.063   0.063   0.065
 19 A1   20 A1   12 B1    3 A2    7 B2   21 A1    8 B2   13 B1                 
  0.068   0.069   0.070   0.073   0.074   0.078   0.091   0.096
 22 A1    9 B2   14 B1   23 A1   15 B1   24 A1   25 A1   16 B1                 
  0.100   0.102   0.103   0.106   0.126   0.163   0.169   0.172
 26 A1    4 A2   10 B2   17 B1   27 A1   11 B2   28 A1   18 B1                 
  0.176   0.180   0.181   0.192   0.211   0.213   0.214   0.222
 29 A1    5 A2   12 B2   30 A1   19 B1   31 A1   13 B2   32 A1                 
  0.222   0.229   0.232   0.235   0.238   0.243   0.244   0.247
 20 B1   14 B2    6 A2   21 B1   33 A1   15 B2   34 A1   22 B1                 
  0.252   0.264   0.280   0.291   0.295   0.303   0.314   0.330
 23 B1   35 A1   36 A1   24 B1   25 B1   37 A1   38 A1   26 B1                 
  0.357   0.366   0.378   0.414   0.418   0.432   0.441   0.491
 16 B2   39 A1   40 A1   41 A1   27 B1   42 A1   28 B1   43 A1                 
  0.500   0.509   0.509   0.621   0.631   0.643   0.652   0.663
 29 B1   30 B1   44 A1   45 A1   31 B1   32 B1   17 B2   46 A1                 
  0.721   0.735   0.743   0.745   0.745   0.772   0.782   0.795
 47 A1   33 B1   18 B2   48 A1   34 B1    7 A2   19 B2   35 B1                 
  0.822   0.823   0.829   0.882   0.884   0.905   0.936   0.938
  8 A2   20 B2   49 A1   50 A1   21 B2   51 A1   52 A1   36 B1                 
  0.956   0.993   1.018   1.026   1.053   1.065   1.067   1.089
 37 B1   53 A1   38 B1   54 A1   55 A1   39 B1   22 B2   56 A1                 
  1.113   1.128   1.133   1.139   1.188   1.212   1.225   1.225
 57 A1   40 B1   41 B1    9 A2   58 A1   42 B1   23 B2   59 A1                 
  1.235   1.275   1.309   1.352   1.376   1.444   1.468   1.501
 10 A2   60 A1   11 A2   24 B2   12 A2   61 A1   43 B1   62 A1                 
  1.581   1.665   1.728   1.786   1.788   1.824   1.831   1.845
 25 B2   63 A1   44 B1   64 A1   45 B1   26 B2   13 A2   65 A1                 
  1.891   1.910   1.911   1.964   2.004   2.007   2.042   2.105
 27 B2   66 A1   46 B1   67 A1   47 B1   28 B2   14 A2   48 B1                 
  2.173   2.218   2.220   2.221   2.236   2.244   2.287   2.326
 68 A1   49 B1   15 A2   29 B2   50 B1   69 A1   30 B2   70 A1                 
  2.354   2.368   2.392   2.579   2.614   2.647   2.684   2.750
 51 B1   16 A2   71 A1   31 B2   52 B1   17 A2   32 B2   72 A1                 
  2.780   2.801   2.813   2.879   2.920   2.956   2.982   3.016
 53 B1   73 A1   54 B1   55 B1   74 A1   75 A1   76 A1   77 A1                 
  3.020   3.026   3.046   3.046   3.067   3.191   3.194   3.206
 56 B1   78 A1   57 B1   79 A1   33 B2   34 B2   18 A2   58 B1                 
  3.211   3.284   3.288   3.321   3.474   3.567   3.634   3.761
 80 A1   35 B2   19 A2   59 B1   36 B2   60 B1   81 A1   61 B1                 
  3.787   3.905   3.922   4.031   4.210   4.400   4.458   4.547
 82 A1   62 B1   83 A1   84 A1   85 A1   63 B1   86 A1   87 A1                 
  4.559   5.263  10.541  24.688  25.075  25.130  25.224  25.254
 64 B1   65 B1   88 A1   89 A1   90 A1   66 B1   91 A1   67 B1                 
 25.346  26.795  27.056  27.520 219.409
 92 A1   37 B2   68 B1   93 A1   94 A1                                         

 Beta MOs, Restricted
 -- Occupied --                  
-104.84  -11.31  -11.25  -11.25  -11.25  -11.25  -11.25  -10.57
  1 A1    2 A1    3 A1    1 B1    4 A1    2 B1    5 A1    6 A1                 
 -8.034  -8.031  -8.031  -1.196  -1.124  -1.036  -1.000  -0.850
  7 A1    3 B1    1 B2    8 A1    9 A1    4 B1   10 A1    5 B1                 
 -0.823  -0.715  -0.651  -0.651  -0.607  -0.593  -0.547  -0.520
 11 A1   12 A1    6 B1   13 A1    7 B1   14 A1    2 B2    8 B1                 
 -0.515  -0.471  -0.456  -0.354  -0.338
 15 A1    3 B2    9 B1    1 A2    4 B2                                         
 -- Virtual --                   
  0.014   0.020   0.021   0.032   0.032   0.033   0.043   0.044
 16 A1   10 B1   17 A1    5 B2   18 A1   11 B1    2 A2    6 B2                 
  0.045   0.048   0.054   0.055   0.056   0.063   0.063   0.065
 19 A1   20 A1   12 B1    3 A2    7 B2   21 A1    8 B2   13 B1                 
  0.068   0.069   0.070   0.073   0.074   0.078   0.091   0.096
 22 A1    9 B2   14 B1   23 A1   15 B1   24 A1   25 A1   16 B1                 
  0.100   0.102   0.103   0.106   0.126   0.163   0.169   0.172
 26 A1    4 A2   10 B2   17 B1   27 A1   11 B2   28 A1   18 B1                 
  0.176   0.180   0.181   0.192   0.211   0.213   0.214   0.222
 29 A1    5 A2   12 B2   30 A1   19 B1   31 A1   13 B2   32 A1                 
  0.222   0.229   0.232   0.235   0.238   0.243   0.244   0.247
 20 B1   14 B2    6 A2   21 B1   33 A1   15 B2   34 A1   22 B1                 
  0.252   0.264   0.280   0.291   0.295   0.303   0.314   0.330
 23 B1   35 A1   36 A1   24 B1   25 B1   37 A1   38 A1   26 B1                 
  0.357   0.366   0.378   0.414   0.418   0.432   0.441   0.491
 16 B2   39 A1   40 A1   41 A1   27 B1   42 A1   28 B1   43 A1                 
  0.500   0.509   0.509   0.621   0.631   0.643   0.652   0.663
 29 B1   30 B1   44 A1   45 A1   31 B1   32 B1   17 B2   46 A1                 
  0.721   0.735   0.743   0.745   0.745   0.772   0.782   0.795
 47 A1   33 B1   18 B2   48 A1   34 B1    7 A2   19 B2   35 B1                 
  0.822   0.823   0.829   0.882   0.884   0.905   0.936   0.938
  8 A2   20 B2   49 A1   50 A1   21 B2   51 A1   52 A1   36 B1                 
  0.956   0.993   1.018   1.026   1.053   1.065   1.067   1.089
 37 B1   53 A1   38 B1   54 A1   55 A1   39 B1   22 B2   56 A1                 
  1.113   1.128   1.133   1.139   1.188   1.212   1.225   1.225
 57 A1   40 B1   41 B1    9 A2   58 A1   42 B1   23 B2   59 A1                 
  1.235   1.275   1.309   1.352   1.376   1.444   1.468   1.501
 10 A2   60 A1   11 A2   24 B2   12 A2   61 A1   43 B1   62 A1                 
  1.581   1.665   1.728   1.786   1.788   1.824   1.831   1.845
 25 B2   63 A1   44 B1   64 A1   45 B1   26 B2   13 A2   65 A1                 
  1.891   1.910   1.911   1.964   2.004   2.007   2.042   2.105
 27 B2   66 A1   46 B1   67 A1   47 B1   28 B2   14 A2   48 B1                 
  2.173   2.218   2.220   2.221   2.236   2.244   2.287   2.326
 68 A1   49 B1   15 A2   29 B2   50 B1   69 A1   30 B2   70 A1                 
  2.354   2.368   2.392   2.579   2.614   2.647   2.684   2.750
 51 B1   16 A2   71 A1   31 B2   52 B1   17 A2   32 B2   72 A1                 
  2.780   2.801   2.813   2.879   2.920   2.956   2.982   3.016
 53 B1   73 A1   54 B1   55 B1   74 A1   75 A1   76 A1   77 A1                 
  3.020   3.026   3.046   3.046   3.067   3.191   3.194   3.206
 56 B1   78 A1   57 B1   79 A1   33 B2   34 B2   18 A2   58 B1                 
  3.211   3.284   3.288   3.321   3.474   3.567   3.634   3.761
 80 A1   35 B2   19 A2   59 B1   36 B2   60 B1   81 A1   61 B1                 
  3.787   3.905   3.922   4.031   4.210   4.400   4.458   4.547
 82 A1   62 B1   83 A1   84 A1   85 A1   63 B1   86 A1   87 A1                 
  4.559   5.263  10.541  24.688  25.075  25.130  25.224  25.254
 64 B1   65 B1   88 A1   89 A1   90 A1   66 B1   91 A1   67 B1                 
 25.346  26.795  27.056  27.520 219.409
 92 A1   37 B2   68 B1   93 A1   94 A1                                         

 Occupation and symmetry of molecular orbitals

 Point group: C2v (4 irreducible representations).

                           A1   A2   B1   B2    All 
 ----------------------------------------------------
 All molecular orbitals:
  - Alpha                  94   19   68   37    218 
  - Beta                   94   19   68   37    218 
 ----------------------------------------------------
 Alpha orbitals:
  - Frozen occupied        7    0    3    1     11  
  - Active occupied        8    1    6    3     18  
  - Active virtual         79   18   59   33    189 
  - Frozen virtual         0    0    0    0     0   
 ----------------------------------------------------
 Beta orbitals:
  - Frozen occupied        7    0    3    1     11  
  - Active occupied        8    1    6    3     18  
  - Active virtual         79   18   59   33    189 
  - Frozen virtual         0    0    0    0     0   
 ----------------------------------------------------

 Import integrals:   CPU 0.00 s  wall 0.00 s

 Import integrals:   CPU 329.94 s  wall 48.43 s

 MP2 amplitudes:   CPU 4.13 s  wall 3.53 s

Running a double precision version
           CCSD T amplitudes will be solved using DIIS.

           Start     Size      MaxIter   EConv     TConv     
           3         7         100       1.00e-06  1.00e-04  
 ------------------------------------------------------------------------------
           Energy (a.u.)   Ediff      Tdiff       Comment
 ------------------------------------------------------------------------------
          -690.64491721                           
     1    -690.64904328   4.13e-03   9.85e-01     
     2    -690.67839511   2.94e-02   1.34e-01     
     3    -690.67897966   5.85e-04   4.64e-02     
     4    -690.68177811   2.80e-03   1.40e-02     Switched to DIIS steps.
     5    -690.68277910   1.00e-03   1.16e-02     
     6    -690.68280512   2.60e-05   2.15e-03     
     7    -690.68279153   1.36e-05   1.00e-03     
     8    -690.68279050   1.02e-06   1.97e-04     
     9    -690.68279061   1.04e-07   7.37e-05     
 ------------------------------------------------------------------------------
          -690.68279061                           CCSD T converged.

End of double precision
 SCF energy                 = -689.68043569
 MP2 energy                 = -690.64491721
 CCSD correlation energy     =   -1.00235492
 CCSD total energy           = -690.68279061

 CCSD  T1^2 = 0.0078  T2^2 = 0.3941  Leading amplitudes:

 Amplitude    Orbitals with energies
  0.0210       1 (A2) A                  ->    7 (A2) A                   
              -0.3536                          0.7720                     
  0.0210       1 (A2) B                  ->    7 (A2) B                   
              -0.3536                          0.7720                     
  0.0202       4 (B2) A                  ->    19 (B2) A                  
              -0.3380                          0.7819                     
  0.0202       4 (B2) B                  ->    19 (B2) B                  
              -0.3380                          0.7819                     

 Amplitude    Orbitals with energies
 -0.0691       1 (A2) A      1 (A2) B    ->    4 (A2) A      4 (A2) B     
              -0.3536       -0.3536            0.1018        0.1018       
  0.0691       1 (A2) A      1 (A2) B    ->    4 (A2) B      4 (A2) A     
              -0.3536       -0.3536            0.1018        0.1018       
  0.0691       1 (A2) B      1 (A2) A    ->    4 (A2) A      4 (A2) B     
              -0.3536       -0.3536            0.1018        0.1018       
 -0.0691       1 (A2) B      1 (A2) A    ->    4 (A2) B      4 (A2) A     
              -0.3536       -0.3536            0.1018        0.1018       

 Computing CCSD intemediates for later calculations in double precision
 Finished.

Running a double precision version
           CCSD Lambda amplitudes will be solved using DIIS.
           Start     Size      MaxIter   EConv     LConv     
           3         7         100       1.00e-06  1.00e-04  
 ------------------------------------------------------------------------------
            Enorm      Ldiff       Comment
 ------------------------------------------------------------------------------
     1     5.67e-02   4.59e-02     
     2     1.01e-02   9.78e-04     
     3     3.43e-03   1.86e-03     
     4     1.39e-03   3.01e-04     Switched to DIIS steps.
     5     4.11e-04   3.23e-04     
     6     1.82e-04   6.62e-05     
     7     5.19e-05   2.15e-05     
     8     2.01e-05   4.20e-06     
     9     6.81e-06   6.36e-07     
    10     2.82e-06   5.02e-08     
    11     1.09e-06   8.35e-08     
    12     3.99e-07   7.99e-08     
 ------------------------------------------------------------------------------
                                   CCSD Lambda converged.

 CCSD calculation:   CPU 1029.75 s  wall 156.36 s

        Solving for CVS-EOMEE-CCSD A1 singlet states.

        CVS-EOMEE-CCSD/MP2 right amplitudes will be solved using Davidson.
        Amplitudes will be solved using standard  algorithm.
     Hard-coded thresholds: 
     LinDepThresh=1.00e-15  NormThresh=1.00e-06  ReorthogonThresh=1.00e-02

      Roots     MaxVec    MaxIter   Precond   Conv      Shift    
      6         120       60        1         1.00e-05  0.00e+00  
 ------------------------------------------------------------------------------
      Iter ConvRoots NVecs ResNorm Current eigenvalues (eV)
 ------------------------------------------------------------------------------
      0    0      6     1.79e+00   216.4305   216.8229   217.0577   217.1713   217.5543   217.6081   
      1    0      12    8.90e+00   214.1293   214.4662   214.6782   214.8465   215.1866   215.2833   
      2    0      18    8.08e-02   205.7888   206.0763   206.2234   206.3797   206.7394   206.8325   
      3    0      24    6.64e-03   205.3712   205.7212   205.8467   206.0015   206.3926   206.4735   
      4    0      30    7.39e-03   205.2643   205.6727   205.7959   205.9385   206.3627   206.4375   
      5    0      36    4.12e-02   204.7180   205.4729   205.5643   205.6384   206.2880   206.3406   
      6    0      42    1.08e-02   204.2592   204.9044   205.3146   205.3704   206.1387   206.1739   
      7    0      48    9.54e-03   204.0306   204.7164   205.2814   205.3110   206.0787   206.1242   
      8    0      54    8.78e-03   203.6060   204.5992   205.2048   205.2861   205.9990   206.1052   
      9    0      60    1.07e-02   203.2333   204.5398   205.0558   205.2792   205.8588   206.0839   
      10   0      66    3.04e-03   203.1668   204.5229   204.9202   205.2741   205.8092   205.9160   
      11   0      72    3.72e-03   203.1552   204.5191   204.8481   205.2720   205.7805   205.8334   
      12   0      78    4.72e-03   203.1466   204.5174   204.7287   205.2710   205.6484   205.7882   
      13   0      84    2.85e-03   203.1432   204.5133   204.6133   205.2691   205.5238   205.7622   
Found complex roots...
      14   0      90    9.05e-04   203.1425   204.5090   204.5773   205.2681   205.4723   205.7417   
      15   1      96    7.85e-04   203.1424*  204.5055   204.5627   205.2678   205.4451   205.7312   
      16   1      101   4.06e-04   203.1424*  204.5013   204.5526   205.2668   205.4231   205.7273   
      17   1      106   1.84e-04   203.1424*  204.4998   204.5497   205.2664   205.4118   205.7242   
      18   2      111   6.28e-05   203.1424*  204.4989   204.5487   205.2662*  205.4060   205.7227   
      19   2      115   3.49e-05   203.1424*  204.4986   204.5481   205.2662*  205.4037   205.7224   
      20   4      119   1.77e-05   203.1424*  204.4986*  204.5482*  205.2661*  205.4027   205.7218   
      21   4      120   1.14e-05   203.1424*  204.4984*  204.5480*  205.2661*  205.4021   205.7218   
      22   5      8     3.02e-06   203.1424*  204.4985*  204.5479*  205.2661*  205.4017   205.7218*  
      23   5      9     3.84e-06   203.1424*  204.4984*  204.5479*  205.2661*  205.4013   205.7218*  
      24   6      10    2.27e-06   203.1424*  204.4984*  204.5479*  205.2661*  205.4015*  205.7218*  

     Davidson procedure converged

 EOMEE transition 1/A1
 Total energy = -683.21744587 a.u.  Excitation energy = 203.1424 eV.
 R0^2 = 0.0000  R1^2 = 0.8811  R2_CCVV^2 = 0.0038  R2_COVV^2 = 0.0576  Res^2 = 7.43e-07
 Conv-d = yes

 Amplitude    Transitions between orbitals
 -0.2890       7 (A1) A                  ->    28 (A1) A                  
 -0.2890       7 (A1) B                  ->    28 (A1) B                  
 -0.2860       7 (A1) A                  ->    29 (A1) A                  
 -0.2860       7 (A1) B                  ->    29 (A1) B                  
  0.2381       7 (A1) A                  ->    32 (A1) A                  
  0.2381       7 (A1) B                  ->    32 (A1) B                  
 -0.2282       7 (A1) A                  ->    37 (A1) A                  
 -0.2282       7 (A1) B                  ->    37 (A1) B                  
 -0.1813       7 (A1) A                  ->    35 (A1) A                  
 -0.1813       7 (A1) B                  ->    35 (A1) B                  
 -0.1530       7 (A1) A                  ->    25 (A1) A                  
 -0.1530       7 (A1) B                  ->    25 (A1) B                  
  0.1302       7 (A1) A                  ->    27 (A1) A                  
  0.1302       7 (A1) B                  ->    27 (A1) B                  
 -0.1071       7 (A1) A                  ->    38 (A1) A                  
 -0.1071       7 (A1) B                  ->    38 (A1) B                  
  0.1070       7 (A1) A                  ->    36 (A1) A                  
  0.1070       7 (A1) B                  ->    36 (A1) B                  

              Summary of significant orbitals:

               Number  Type             Irrep      Energy
               9       Occ  Alpha       7 (A1)     -8.0343
               9       Occ  Beta        7 (A1)     -8.0343
               52      Vir  Alpha      25 (A1)      0.0913
               58      Vir  Alpha      27 (A1)      0.1260
               60      Vir  Alpha      28 (A1)      0.1691
               62      Vir  Alpha      29 (A1)      0.1762
               69      Vir  Alpha      32 (A1)      0.2216
               79      Vir  Alpha      35 (A1)      0.2645
               80      Vir  Alpha      36 (A1)      0.2796
               83      Vir  Alpha      37 (A1)      0.3027
               84      Vir  Alpha      38 (A1)      0.3138
               52      Vir  Beta       25 (A1)      0.0913
               58      Vir  Beta       27 (A1)      0.1260
               60      Vir  Beta       28 (A1)      0.1691
               62      Vir  Beta       29 (A1)      0.1762
               69      Vir  Beta       32 (A1)      0.2216
               79      Vir  Beta       35 (A1)      0.2645
               80      Vir  Beta       36 (A1)      0.2796
               83      Vir  Beta       37 (A1)      0.3027
               84      Vir  Beta       38 (A1)      0.3138


 EOMEE transition 2/A1
 Total energy = -683.16761221 a.u.  Excitation energy = 204.4984 eV.
 R0^2 = 0.0000  R1^2 = 0.8605  R2_CCVV^2 = 0.0036  R2_COVV^2 = 0.0679  Res^2 = 4.63e-07
 Conv-d = yes

 Amplitude    Transitions between orbitals
  0.3988       1 (B2) A                  ->    10 (B2) A                  
  0.3988       1 (B2) B                  ->    10 (B2) B                  
  0.2764       7 (A1) A                  ->    23 (A1) A                  
  0.2764       7 (A1) B                  ->    23 (A1) B                  
  0.2425       7 (A1) A                  ->    17 (A1) A                  
  0.2425       7 (A1) B                  ->    17 (A1) B                  
 -0.1821       7 (A1) A                  ->    16 (A1) A                  
 -0.1821       7 (A1) B                  ->    16 (A1) B                  
 -0.1149       7 (A1) A                  ->    30 (A1) A                  
 -0.1149       7 (A1) B                  ->    30 (A1) B                  
  0.1051       1 (B2) A                  ->    6 (B2) A                   
  0.1051       1 (B2) B                  ->    6 (B2) B                   
  0.1034       7 (A1) A                  ->    22 (A1) A                  
  0.1034       7 (A1) B                  ->    22 (A1) B                  
  0.1003       7 (A1) A                  ->    32 (A1) A                  
  0.1003       7 (A1) B                  ->    32 (A1) B                  

              Summary of significant orbitals:

               Number  Type             Irrep      Energy
               9       Occ  Alpha       7 (A1)     -8.0343
               11      Occ  Alpha       1 (B2)     -8.0311
               9       Occ  Beta        7 (A1)     -8.0343
               11      Occ  Beta        1 (B2)     -8.0311
               30      Vir  Alpha      16 (A1)      0.0143
               32      Vir  Alpha      17 (A1)      0.0212
               46      Vir  Alpha      22 (A1)      0.0682
               49      Vir  Alpha      23 (A1)      0.0735
               65      Vir  Alpha      30 (A1)      0.1918
               69      Vir  Alpha      32 (A1)      0.2216
               37      Vir  Alpha       6 (B2)      0.0436
               56      Vir  Alpha      10 (B2)      0.1035
               30      Vir  Beta       16 (A1)      0.0143
               32      Vir  Beta       17 (A1)      0.0212
               46      Vir  Beta       22 (A1)      0.0682
               49      Vir  Beta       23 (A1)      0.0735
               65      Vir  Beta       30 (A1)      0.1918
               69      Vir  Beta       32 (A1)      0.2216
               37      Vir  Beta        6 (B2)      0.0436
               56      Vir  Beta       10 (B2)      0.1035


 EOMEE transition 3/A1
 Total energy = -683.16579333 a.u.  Excitation energy = 204.5479 eV.
 R0^2 = 0.0000  R1^2 = 0.8575  R2_CCVV^2 = 0.0037  R2_COVV^2 = 0.0694  Res^2 = 6.64e-07
 Conv-d = yes

 Amplitude    Transitions between orbitals
  0.4543       1 (B2) A                  ->    10 (B2) A                  
  0.4543       1 (B2) B                  ->    10 (B2) B                  
 -0.2288       7 (A1) A                  ->    23 (A1) A                  
 -0.2288       7 (A1) B                  ->    23 (A1) B                  
 -0.1980       7 (A1) A                  ->    17 (A1) A                  
 -0.1980       7 (A1) B                  ->    17 (A1) B                  
  0.1595       7 (A1) A                  ->    16 (A1) A                  
  0.1595       7 (A1) B                  ->    16 (A1) B                  
  0.1411       1 (B2) A                  ->    6 (B2) A                   
  0.1411       1 (B2) B                  ->    6 (B2) B                   
  0.1067       1 (B2) A                  ->    5 (B2) A                   
  0.1067       1 (B2) B                  ->    5 (B2) B                   

              Summary of significant orbitals:

               Number  Type             Irrep      Energy
               9       Occ  Alpha       7 (A1)     -8.0343
               11      Occ  Alpha       1 (B2)     -8.0311
               9       Occ  Beta        7 (A1)     -8.0343
               11      Occ  Beta        1 (B2)     -8.0311
               30      Vir  Alpha      16 (A1)      0.0143
               32      Vir  Alpha      17 (A1)      0.0212
               49      Vir  Alpha      23 (A1)      0.0735
               33      Vir  Alpha       5 (B2)      0.0317
               37      Vir  Alpha       6 (B2)      0.0436
               56      Vir  Alpha      10 (B2)      0.1035
               30      Vir  Beta       16 (A1)      0.0143
               32      Vir  Beta       17 (A1)      0.0212
               49      Vir  Beta       23 (A1)      0.0735
               33      Vir  Beta        5 (B2)      0.0317
               37      Vir  Beta        6 (B2)      0.0436
               56      Vir  Beta       10 (B2)      0.1035


 EOMEE transition 4/A1
 Total energy = -683.13940041 a.u.  Excitation energy = 205.2661 eV.
 R0^2 = 0.0000  R1^2 = 0.8644  R2_CCVV^2 = 0.0037  R2_COVV^2 = 0.0660  Res^2 = 3.62e-07
 Conv-d = yes

 Amplitude    Transitions between orbitals
 -0.3585       3 (B1) A                  ->    10 (B1) A                  
 -0.3585       3 (B1) B                  ->    10 (B1) B                  
 -0.3259       3 (B1) A                  ->    11 (B1) A                  
 -0.3259       3 (B1) B                  ->    11 (B1) B                  
  0.1860       3 (B1) A                  ->    14 (B1) A                  
  0.1860       3 (B1) B                  ->    14 (B1) B                  
  0.1761       3 (B1) A                  ->    17 (B1) A                  
  0.1761       3 (B1) B                  ->    17 (B1) B                  
  0.1531       3 (B1) A                  ->    12 (B1) A                  
  0.1531       3 (B1) B                  ->    12 (B1) B                  
 -0.1509       3 (B1) A                  ->    16 (B1) A                  
 -0.1509       3 (B1) B                  ->    16 (B1) B                  
 -0.1224       1 (B2) A                  ->    5 (B2) A                   
 -0.1224       1 (B2) B                  ->    5 (B2) B                   
  0.1142       3 (B1) A                  ->    13 (B1) A                  
  0.1142       3 (B1) B                  ->    13 (B1) B                  
  0.1126       3 (B1) A                  ->    18 (B1) A                  
  0.1126       3 (B1) B                  ->    18 (B1) B                  
 -0.1047       1 (B2) A                  ->    6 (B2) A                   
 -0.1047       1 (B2) B                  ->    6 (B2) B                   

              Summary of significant orbitals:

               Number  Type             Irrep      Energy
               10      Occ  Alpha       3 (B1)     -8.0313
               11      Occ  Alpha       1 (B2)     -8.0311
               10      Occ  Beta        3 (B1)     -8.0313
               11      Occ  Beta        1 (B2)     -8.0311
               31      Vir  Alpha      10 (B1)      0.0202
               35      Vir  Alpha      11 (B1)      0.0334
               40      Vir  Alpha      12 (B1)      0.0538
               45      Vir  Alpha      13 (B1)      0.0648
               48      Vir  Alpha      14 (B1)      0.0702
               53      Vir  Alpha      16 (B1)      0.0957
               57      Vir  Alpha      17 (B1)      0.1061
               61      Vir  Alpha      18 (B1)      0.1724
               33      Vir  Alpha       5 (B2)      0.0317
               37      Vir  Alpha       6 (B2)      0.0436
               31      Vir  Beta       10 (B1)      0.0202
               35      Vir  Beta       11 (B1)      0.0334
               40      Vir  Beta       12 (B1)      0.0538
               45      Vir  Beta       13 (B1)      0.0648
               48      Vir  Beta       14 (B1)      0.0702
               53      Vir  Beta       16 (B1)      0.0957
               57      Vir  Beta       17 (B1)      0.1061
               61      Vir  Beta       18 (B1)      0.1724
               33      Vir  Beta        5 (B2)      0.0317
               37      Vir  Beta        6 (B2)      0.0436


 EOMEE transition 5/A1
 Total energy = -683.13442511 a.u.  Excitation energy = 205.4015 eV.
 R0^2 = 0.0000  R1^2 = 0.8637  R2_CCVV^2 = 0.0037  R2_COVV^2 = 0.0663  Res^2 = 6.78e-06
 Conv-d = yes

 Amplitude    Transitions between orbitals
 -0.4009       1 (B2) A                  ->    5 (B2) A                   
 -0.4009       1 (B2) B                  ->    5 (B2) B                   
 -0.3114       1 (B2) A                  ->    6 (B2) A                   
 -0.3114       1 (B2) B                  ->    6 (B2) B                   
 -0.1958       1 (B2) A                  ->    7 (B2) A                   
 -0.1958       1 (B2) B                  ->    7 (B2) B                   
 -0.1754       1 (B2) A                  ->    11 (B2) A                  
 -0.1754       1 (B2) B                  ->    11 (B2) B                  
 -0.1496       1 (B2) A                  ->    12 (B2) A                  
 -0.1496       1 (B2) B                  ->    12 (B2) B                  
  0.1491       1 (B2) A                  ->    10 (B2) A                  
  0.1491       1 (B2) B                  ->    10 (B2) B                  
  0.1189       3 (B1) A                  ->    10 (B1) A                  
  0.1189       3 (B1) B                  ->    10 (B1) B                  

              Summary of significant orbitals:

               Number  Type             Irrep      Energy
               10      Occ  Alpha       3 (B1)     -8.0313
               11      Occ  Alpha       1 (B2)     -8.0311
               10      Occ  Beta        3 (B1)     -8.0313
               11      Occ  Beta        1 (B2)     -8.0311
               31      Vir  Alpha      10 (B1)      0.0202
               33      Vir  Alpha       5 (B2)      0.0317
               37      Vir  Alpha       6 (B2)      0.0436
               42      Vir  Alpha       7 (B2)      0.0559
               56      Vir  Alpha      10 (B2)      0.1035
               59      Vir  Alpha      11 (B2)      0.1629
               64      Vir  Alpha      12 (B2)      0.1813
               31      Vir  Beta       10 (B1)      0.0202
               33      Vir  Beta        5 (B2)      0.0317
               37      Vir  Beta        6 (B2)      0.0436
               42      Vir  Beta        7 (B2)      0.0559
               56      Vir  Beta       10 (B2)      0.1035
               59      Vir  Beta       11 (B2)      0.1629
               64      Vir  Beta       12 (B2)      0.1813


 EOMEE transition 6/A1
 Total energy = -683.12265479 a.u.  Excitation energy = 205.7218 eV.
 R0^2 = 0.0000  R1^2 = 0.8602  R2_CCVV^2 = 0.0036  R2_COVV^2 = 0.0681  Res^2 = 4.63e-06
 Conv-d = yes

 Amplitude    Transitions between orbitals
  0.3476       7 (A1) A                  ->    19 (A1) A                  
  0.3476       7 (A1) B                  ->    19 (A1) B                  
 -0.3285       7 (A1) A                  ->    16 (A1) A                  
 -0.3285       7 (A1) B                  ->    16 (A1) B                  
 -0.2201       7 (A1) A                  ->    18 (A1) A                  
 -0.2201       7 (A1) B                  ->    18 (A1) B                  
 -0.1903       7 (A1) A                  ->    17 (A1) A                  
 -0.1903       7 (A1) B                  ->    17 (A1) B                  
 -0.1635       7 (A1) A                  ->    25 (A1) A                  
 -0.1635       7 (A1) B                  ->    25 (A1) B                  
 -0.1489       7 (A1) A                  ->    20 (A1) A                  
 -0.1489       7 (A1) B                  ->    20 (A1) B                  
  0.1137       7 (A1) A                  ->    29 (A1) A                  
  0.1137       7 (A1) B                  ->    29 (A1) B                  

              Summary of significant orbitals:

               Number  Type             Irrep      Energy
               9       Occ  Alpha       7 (A1)     -8.0343
               9       Occ  Beta        7 (A1)     -8.0343
               30      Vir  Alpha      16 (A1)      0.0143
               32      Vir  Alpha      17 (A1)      0.0212
               34      Vir  Alpha      18 (A1)      0.0319
               38      Vir  Alpha      19 (A1)      0.0450
               39      Vir  Alpha      20 (A1)      0.0478
               52      Vir  Alpha      25 (A1)      0.0913
               62      Vir  Alpha      29 (A1)      0.1762
               30      Vir  Beta       16 (A1)      0.0143
               32      Vir  Beta       17 (A1)      0.0212
               34      Vir  Beta       18 (A1)      0.0319
               38      Vir  Beta       19 (A1)      0.0450
               39      Vir  Beta       20 (A1)      0.0478
               52      Vir  Beta       25 (A1)      0.0913
               62      Vir  Beta       29 (A1)      0.1762


      CVS-EOM-CCSD/MP2 left amplitudes will be solved using Davidson.
        Amplitudes will be solved using MOM  algorithm.
     Hard-coded thresholds: 
     LinDepThresh=1.00e-15  NormThresh=1.00e-06  ReorthogonThresh=1.00e-02

      Roots     MaxVec    MaxIter   Precond   Conv      Shift    
      6         120       60        1         1.00e-05  0.00e+00  
 ------------------------------------------------------------------------------
      Iter ConvRoots NVecs ResNorm Current eigenvalues (eV)
 ------------------------------------------------------------------------------
      0    0      6     1.62e-02   203.1424   204.4984   204.5479   205.2661   205.4015   205.7218   
      1    0      12    8.30e-02   203.1424   204.4984   204.5479   205.2661   205.4014   205.7217   
      2    0      18    3.66e-04   203.1424   204.4984   204.5479   205.2661   205.4013   205.7217   
      3    0      24    7.95e-05   203.1424   204.4984   204.5479   205.2661   205.4013   205.7217   
      4    1      30    4.00e-04   203.1424*  204.4984   204.5479   205.2661   205.4016   205.7217   
      5    3      35    9.38e-05   203.1424*  204.4984*  204.5479   205.2661*  205.4014   205.7218   
      6    6      38    4.23e-06   203.1424*  204.4984*  204.5479*  205.2661*  205.4014*  205.7217*  

     Davidson procedure converged

        Solving for CVS-EOMEE-CCSD B1 singlet states.

        CVS-EOMEE-CCSD/MP2 right amplitudes will be solved using Davidson.
        Amplitudes will be solved using standard  algorithm.
     Hard-coded thresholds: 
     LinDepThresh=1.00e-15  NormThresh=1.00e-06  ReorthogonThresh=1.00e-02

      Roots     MaxVec    MaxIter   Precond   Conv      Shift    
      6         120       60        1         1.00e-05  0.00e+00  
 ------------------------------------------------------------------------------
      Iter ConvRoots NVecs ResNorm Current eigenvalues (eV)
 ------------------------------------------------------------------------------
      0    0      6     1.79e+00   216.3523   216.9007   217.0935   217.5153   217.5305   217.6317   
      1    0      12    8.92e+00   214.0056   214.5893   214.7233   215.1411   215.1602   215.3094   
      2    0      18    7.98e-02   205.6521   206.2097   206.2472   206.7003   206.7188   206.8711   
      3    0      24    6.31e-03   205.2402   205.8478   205.8753   206.3476   206.3863   206.5178   
      4    0      30    6.89e-03   205.1362   205.7956   205.8145   206.3144   206.3597   206.4848   
      5    0      36    4.32e-02   204.5509   205.3398   205.6285   206.2033   206.3173   206.4155   
      6    0      42    9.30e-03   204.1069   204.6646   205.4377   206.0157   206.2473   206.2884   
      7    0      48    1.34e-02   203.8143   204.4998   205.4020   205.9512   206.2241   206.2312   
      8    0      54    1.01e-02   203.1868   204.4046   205.3895   205.8331   206.1737   206.2154   
      9    0      60    5.48e-03   202.8513   204.3701   205.3864   205.7031   206.1080   206.1880   
      10   0      66    1.10e-03   202.7966   204.3598   205.3835   205.6638   206.0838   206.1558   
      11   0      72    1.25e-03   202.7839   204.3581   205.3820   205.6464   206.0704   206.1313   
      12   0      78    1.47e-03   202.7770   204.3578   205.3818   205.6185   206.0460   206.0880   
      13   0      84    1.60e-03   202.7752   204.3575   205.3813   205.5919   205.9874   206.0699   
      14   2      90    6.24e-04   202.7749*  204.3575*  205.3811   205.5761   205.9329   206.0645   
      15   3      94    4.63e-04   202.7749*  204.3575*  205.3813*  205.5677   205.9011   206.0627   
      16   3      97    5.12e-04   202.7749*  204.3575*  205.3813*  205.5625   205.8817   206.0596   
      17   3      100   4.04e-03   202.7749*  204.3575*  205.3813*  205.5578   205.7725   205.9274   
      18   3      103   3.66e-03   202.7748*  204.3575*  205.3813*  205.5467   205.5897   205.8915   
      19   3      106   2.21e-03   202.7749*  204.3575*  205.3335   205.3813*  205.5601   205.8787   
      20   3      109   5.21e-04   202.7749*  204.3575*  205.2660   205.3813*  205.5594   205.8764   
      21   3      112   2.13e-04   202.7749*  204.3575*  205.2337   205.3813*  205.5590   205.8750   
      22   4      115   1.21e-04   202.7749*  204.3575*  205.2245   205.3813*  205.5590*  205.8736   
      23   4      117   5.28e-05   202.7749*  204.3575*  205.2173   205.3813*  205.5589*  205.8736   
      24   4      119   1.93e-05   202.7749*  204.3575*  205.2150   205.3813*  205.5588*  205.8732   
      25   5      120   1.06e-05   202.7749*  204.3575*  205.2140   205.3813*  205.5588*  205.8732*  
      26   6      7     3.72e-06   202.7749*  204.3575*  205.2137*  205.3813*  205.5588*  205.8732*  

     Davidson procedure converged

 EOMEE transition 1/B1
 Total energy = -683.23095118 a.u.  Excitation energy = 202.7749 eV.
 R0^2 = 0.0000  R1^2 = 0.8874  R2_CCVV^2 = 0.0038  R2_COVV^2 = 0.0544  Res^2 = 1.97e-06
 Conv-d = yes

 Amplitude    Transitions between orbitals
  0.2838       3 (B1) A                  ->    29 (A1) A                  
  0.2838       3 (B1) B                  ->    29 (A1) B                  
  0.2747       3 (B1) A                  ->    28 (A1) A                  
  0.2747       3 (B1) B                  ->    28 (A1) B                  
 -0.2536       3 (B1) A                  ->    32 (A1) A                  
 -0.2536       3 (B1) B                  ->    32 (A1) B                  
  0.2413       3 (B1) A                  ->    37 (A1) A                  
  0.2413       3 (B1) B                  ->    37 (A1) B                  
  0.1942       3 (B1) A                  ->    35 (A1) A                  
  0.1942       3 (B1) B                  ->    35 (A1) B                  
  0.1429       3 (B1) A                  ->    25 (A1) A                  
  0.1429       3 (B1) B                  ->    25 (A1) B                  
 -0.1298       3 (B1) A                  ->    27 (A1) A                  
 -0.1298       3 (B1) B                  ->    27 (A1) B                  
  0.1176       3 (B1) A                  ->    38 (A1) A                  
  0.1176       3 (B1) B                  ->    38 (A1) B                  
 -0.1154       3 (B1) A                  ->    36 (A1) A                  
 -0.1154       3 (B1) B                  ->    36 (A1) B                  
  0.1033       3 (B1) A                  ->    30 (A1) A                  
  0.1033       3 (B1) B                  ->    30 (A1) B                  

              Summary of significant orbitals:

               Number  Type             Irrep      Energy
               10      Occ  Alpha       3 (B1)     -8.0313
               10      Occ  Beta        3 (B1)     -8.0313
               52      Vir  Alpha      25 (A1)      0.0913
               58      Vir  Alpha      27 (A1)      0.1260
               60      Vir  Alpha      28 (A1)      0.1691
               62      Vir  Alpha      29 (A1)      0.1762
               65      Vir  Alpha      30 (A1)      0.1918
               69      Vir  Alpha      32 (A1)      0.2216
               79      Vir  Alpha      35 (A1)      0.2645
               80      Vir  Alpha      36 (A1)      0.2796
               83      Vir  Alpha      37 (A1)      0.3027
               84      Vir  Alpha      38 (A1)      0.3138
               52      Vir  Beta       25 (A1)      0.0913
               58      Vir  Beta       27 (A1)      0.1260
               60      Vir  Beta       28 (A1)      0.1691
               62      Vir  Beta       29 (A1)      0.1762
               65      Vir  Beta       30 (A1)      0.1918
               69      Vir  Beta       32 (A1)      0.2216
               79      Vir  Beta       35 (A1)      0.2645
               80      Vir  Beta       36 (A1)      0.2796
               83      Vir  Beta       37 (A1)      0.3027
               84      Vir  Beta       38 (A1)      0.3138


 EOMEE transition 2/B1
 Total energy = -683.17279047 a.u.  Excitation energy = 204.3575 eV.
 R0^2 = 0.0000  R1^2 = 0.8699  R2_CCVV^2 = 0.0037  R2_COVV^2 = 0.0632  Res^2 = 2.20e-07
 Conv-d = yes

 Amplitude    Transitions between orbitals
 -0.3766       3 (B1) A                  ->    23 (A1) A                  
 -0.3766       3 (B1) B                  ->    23 (A1) B                  
 -0.3300       3 (B1) A                  ->    17 (A1) A                  
 -0.3300       3 (B1) B                  ->    17 (A1) B                  
  0.2455       3 (B1) A                  ->    16 (A1) A                  
  0.2455       3 (B1) B                  ->    16 (A1) B                  
  0.1584       3 (B1) A                  ->    30 (A1) A                  
  0.1584       3 (B1) B                  ->    30 (A1) B                  
 -0.1409       3 (B1) A                  ->    22 (A1) A                  
 -0.1409       3 (B1) B                  ->    22 (A1) B                  
 -0.1359       3 (B1) A                  ->    32 (A1) A                  
 -0.1359       3 (B1) B                  ->    32 (A1) B                  
  0.1125       3 (B1) A                  ->    24 (A1) A                  
  0.1125       3 (B1) B                  ->    24 (A1) B                  
 -0.1088       3 (B1) A                  ->    29 (A1) A                  
 -0.1088       3 (B1) B                  ->    29 (A1) B                  

              Summary of significant orbitals:

               Number  Type             Irrep      Energy
               10      Occ  Alpha       3 (B1)     -8.0313
               10      Occ  Beta        3 (B1)     -8.0313
               30      Vir  Alpha      16 (A1)      0.0143
               32      Vir  Alpha      17 (A1)      0.0212
               46      Vir  Alpha      22 (A1)      0.0682
               49      Vir  Alpha      23 (A1)      0.0735
               51      Vir  Alpha      24 (A1)      0.0779
               62      Vir  Alpha      29 (A1)      0.1762
               65      Vir  Alpha      30 (A1)      0.1918
               69      Vir  Alpha      32 (A1)      0.2216
               30      Vir  Beta       16 (A1)      0.0143
               32      Vir  Beta       17 (A1)      0.0212
               46      Vir  Beta       22 (A1)      0.0682
               49      Vir  Beta       23 (A1)      0.0735
               51      Vir  Beta       24 (A1)      0.0779
               62      Vir  Beta       29 (A1)      0.1762
               65      Vir  Beta       30 (A1)      0.1918
               69      Vir  Beta       32 (A1)      0.2216


 EOMEE transition 3/B1
 Total energy = -683.14132498 a.u.  Excitation energy = 205.2137 eV.
 R0^2 = 0.0000  R1^2 = 0.8425  R2_CCVV^2 = 0.0036  R2_COVV^2 = 0.0769  Res^2 = 9.37e-06
 Conv-d = yes

 Amplitude    Transitions between orbitals
  0.6113       1 (B2) A                  ->    4 (A2) A                   
  0.6113       1 (B2) B                  ->    4 (A2) B                   
 -0.1873       1 (B2) A                  ->    3 (A2) A                   
 -0.1873       1 (B2) B                  ->    3 (A2) B                   

              Summary of significant orbitals:

               Number  Type             Irrep      Energy
               11      Occ  Alpha       1 (B2)     -8.0311
               11      Occ  Beta        1 (B2)     -8.0311
               41      Vir  Alpha       3 (A2)      0.0554
               55      Vir  Alpha       4 (A2)      0.1018
               41      Vir  Beta        3 (A2)      0.0554
               55      Vir  Beta        4 (A2)      0.1018


 EOMEE transition 4/B1
 Total energy = -683.13516533 a.u.  Excitation energy = 205.3813 eV.
 R0^2 = 0.0000  R1^2 = 0.8638  R2_CCVV^2 = 0.0036  R2_COVV^2 = 0.0663  Res^2 = 3.52e-06
 Conv-d = yes

 Amplitude    Transitions between orbitals
  0.3731       7 (A1) A                  ->    10 (B1) A                  
  0.3731       7 (A1) B                  ->    10 (B1) B                  
  0.3408       7 (A1) A                  ->    11 (B1) A                  
  0.3408       7 (A1) B                  ->    11 (B1) B                  
 -0.1954       7 (A1) A                  ->    14 (B1) A                  
 -0.1954       7 (A1) B                  ->    14 (B1) B                  
 -0.1875       7 (A1) A                  ->    17 (B1) A                  
 -0.1875       7 (A1) B                  ->    17 (B1) B                  
  0.1596       7 (A1) A                  ->    16 (B1) A                  
  0.1596       7 (A1) B                  ->    16 (B1) B                  
 -0.1593       7 (A1) A                  ->    12 (B1) A                  
 -0.1593       7 (A1) B                  ->    12 (B1) B                  
 -0.1216       7 (A1) A                  ->    18 (B1) A                  
 -0.1216       7 (A1) B                  ->    18 (B1) B                  
 -0.1199       7 (A1) A                  ->    13 (B1) A                  
 -0.1199       7 (A1) B                  ->    13 (B1) B                  

              Summary of significant orbitals:

               Number  Type             Irrep      Energy
               9       Occ  Alpha       7 (A1)     -8.0343
               9       Occ  Beta        7 (A1)     -8.0343
               31      Vir  Alpha      10 (B1)      0.0202
               35      Vir  Alpha      11 (B1)      0.0334
               40      Vir  Alpha      12 (B1)      0.0538
               45      Vir  Alpha      13 (B1)      0.0648
               48      Vir  Alpha      14 (B1)      0.0702
               53      Vir  Alpha      16 (B1)      0.0957
               57      Vir  Alpha      17 (B1)      0.1061
               61      Vir  Alpha      18 (B1)      0.1724
               31      Vir  Beta       10 (B1)      0.0202
               35      Vir  Beta       11 (B1)      0.0334
               40      Vir  Beta       12 (B1)      0.0538
               45      Vir  Beta       13 (B1)      0.0648
               48      Vir  Beta       14 (B1)      0.0702
               53      Vir  Beta       16 (B1)      0.0957
               57      Vir  Beta       17 (B1)      0.1061
               61      Vir  Beta       18 (B1)      0.1724


 EOMEE transition 5/B1
 Total energy = -683.12864409 a.u.  Excitation energy = 205.5588 eV.
 R0^2 = 0.0000  R1^2 = 0.8616  R2_CCVV^2 = 0.0036  R2_COVV^2 = 0.0674  Res^2 = 8.75e-07
 Conv-d = yes

 Amplitude    Transitions between orbitals
  0.3612       3 (B1) A                  ->    19 (A1) A                  
  0.3612       3 (B1) B                  ->    19 (A1) B                  
 -0.3244       3 (B1) A                  ->    16 (A1) A                  
 -0.3244       3 (B1) B                  ->    16 (A1) B                  
 -0.2321       3 (B1) A                  ->    18 (A1) A                  
 -0.2321       3 (B1) B                  ->    18 (A1) B                  
 -0.1764       3 (B1) A                  ->    25 (A1) A                  
 -0.1764       3 (B1) B                  ->    25 (A1) B                  
 -0.1711       3 (B1) A                  ->    17 (A1) A                  
 -0.1711       3 (B1) B                  ->    17 (A1) B                  
 -0.1666       3 (B1) A                  ->    20 (A1) A                  
 -0.1666       3 (B1) B                  ->    20 (A1) B                  
  0.1080       3 (B1) A                  ->    29 (A1) A                  
  0.1080       3 (B1) B                  ->    29 (A1) B                  

              Summary of significant orbitals:

               Number  Type             Irrep      Energy
               10      Occ  Alpha       3 (B1)     -8.0313
               10      Occ  Beta        3 (B1)     -8.0313
               30      Vir  Alpha      16 (A1)      0.0143
               32      Vir  Alpha      17 (A1)      0.0212
               34      Vir  Alpha      18 (A1)      0.0319
               38      Vir  Alpha      19 (A1)      0.0450
               39      Vir  Alpha      20 (A1)      0.0478
               52      Vir  Alpha      25 (A1)      0.0913
               62      Vir  Alpha      29 (A1)      0.1762
               30      Vir  Beta       16 (A1)      0.0143
               32      Vir  Beta       17 (A1)      0.0212
               34      Vir  Beta       18 (A1)      0.0319
               38      Vir  Beta       19 (A1)      0.0450
               39      Vir  Beta       20 (A1)      0.0478
               52      Vir  Beta       25 (A1)      0.0913
               62      Vir  Beta       29 (A1)      0.1762


 EOMEE transition 6/B1
 Total energy = -683.11708931 a.u.  Excitation energy = 205.8732 eV.
 R0^2 = 0.0000  R1^2 = 0.8616  R2_CCVV^2 = 0.0037  R2_COVV^2 = 0.0674  Res^2 = 6.39e-06
 Conv-d = yes

 Amplitude    Transitions between orbitals
 -0.3872       3 (B1) A                  ->    16 (A1) A                  
 -0.3872       3 (B1) B                  ->    16 (A1) B                  
 -0.3327       3 (B1) A                  ->    19 (A1) A                  
 -0.3327       3 (B1) B                  ->    19 (A1) B                  
 -0.2485       3 (B1) A                  ->    23 (A1) A                  
 -0.2485       3 (B1) B                  ->    23 (A1) B                  
  0.1643       3 (B1) A                  ->    28 (A1) A                  
  0.1643       3 (B1) B                  ->    28 (A1) B                  
 -0.1498       3 (B1) A                  ->    21 (A1) A                  
 -0.1498       3 (B1) B                  ->    21 (A1) B                  
 -0.1232       3 (B1) A                  ->    29 (A1) A                  
 -0.1232       3 (B1) B                  ->    29 (A1) B                  
 -0.1161       3 (B1) A                  ->    18 (A1) A                  
 -0.1161       3 (B1) B                  ->    18 (A1) B                  

              Summary of significant orbitals:

               Number  Type             Irrep      Energy
               10      Occ  Alpha       3 (B1)     -8.0313
               10      Occ  Beta        3 (B1)     -8.0313
               30      Vir  Alpha      16 (A1)      0.0143
               34      Vir  Alpha      18 (A1)      0.0319
               38      Vir  Alpha      19 (A1)      0.0450
               43      Vir  Alpha      21 (A1)      0.0629
               49      Vir  Alpha      23 (A1)      0.0735
               60      Vir  Alpha      28 (A1)      0.1691
               62      Vir  Alpha      29 (A1)      0.1762
               30      Vir  Beta       16 (A1)      0.0143
               34      Vir  Beta       18 (A1)      0.0319
               38      Vir  Beta       19 (A1)      0.0450
               43      Vir  Beta       21 (A1)      0.0629
               49      Vir  Beta       23 (A1)      0.0735
               60      Vir  Beta       28 (A1)      0.1691
               62      Vir  Beta       29 (A1)      0.1762


      CVS-EOM-CCSD/MP2 left amplitudes will be solved using Davidson.
        Amplitudes will be solved using MOM  algorithm.
     Hard-coded thresholds: 
     LinDepThresh=1.00e-15  NormThresh=1.00e-06  ReorthogonThresh=1.00e-02

      Roots     MaxVec    MaxIter   Precond   Conv      Shift    
      6         120       60        1         1.00e-05  0.00e+00  
 ------------------------------------------------------------------------------
      Iter ConvRoots NVecs ResNorm Current eigenvalues (eV)
 ------------------------------------------------------------------------------
      0    0      6     1.63e-02   202.7749   204.3575   205.2137   205.3813   205.5588   205.8732   
      1    0      12    7.27e-02   202.7748   204.3575   205.2136   205.3811   205.5588   205.8731   
      2    0      18    2.90e-04   202.7748   204.3575   205.2136   205.3812   205.5588   205.8730   
      3    0      24    4.69e-05   202.7748   204.3575   205.2135   205.3811   205.5588   205.8730   
      4    5      30    5.59e-06   202.7748*  204.3575*  205.2135   205.3811*  205.5588*  205.8730*  
      5    5      31    5.79e-06   202.7748*  204.3575*  205.2134   205.3811*  205.5588*  205.8730*  
      6    6      32    4.06e-06   202.7748*  204.3575*  205.2134*  205.3811*  205.5588*  205.8730*  

     Davidson procedure converged

        Solving for CVS-EOMEE-CCSD B2 singlet states.

        CVS-EOMEE-CCSD/MP2 right amplitudes will be solved using Davidson.
        Amplitudes will be solved using standard  algorithm.
     Hard-coded thresholds: 
     LinDepThresh=1.00e-15  NormThresh=1.00e-06  ReorthogonThresh=1.00e-02

      Roots     MaxVec    MaxIter   Precond   Conv      Shift    
      6         120       60        1         1.00e-05  0.00e+00  
 ------------------------------------------------------------------------------
      Iter ConvRoots NVecs ResNorm Current eigenvalues (eV)
 ------------------------------------------------------------------------------
      0    0      6     1.79e+00   216.3117   216.9485   217.1382   217.3379   217.5183   217.5538   
      1    0      12    8.95e+00   213.9591   214.5675   214.8138   214.9705   215.1537   215.1737   
      2    0      18    7.93e-02   205.6322   206.0920   206.3608   206.5894   206.7189   206.7240   
      3    0      24    6.54e-03   205.2198   205.7214   205.9785   206.2510   206.3569   206.3931   
      4    0      30    7.23e-03   205.1129   205.6522   205.9243   206.2164   206.3204   206.3667   
      5    0      36    4.51e-02   204.5056   205.1533   205.7689   206.1071   206.1823   206.3242   
      6    0      42    9.96e-03   204.0493   204.5938   205.5075   205.8991   205.9895   206.2537   
      7    0      48    1.58e-02   203.7145   204.4617   205.4232   205.8365   205.9343   206.2255   
      8    0      54    9.31e-03   203.1017   204.3871   205.3423   205.7113   205.8938   206.1507   
      9    0      60    7.30e-03   202.8245   204.3611   205.2093   205.5962   205.8793   206.0975   
      10   0      66    2.86e-03   202.7857   204.3529   205.0754   205.5712   205.8679   206.0678   
      11   0      72    3.67e-03   202.7789   204.3514   204.9994   205.5626   205.8645   205.9659   
      12   0      78    4.45e-03   202.7756   204.3511   204.8702   205.5584   205.7886   205.8635   
      13   0      84    3.61e-03   202.7743   204.3508   204.7157   205.5547   205.6326   205.8628   
Found complex roots...
      14   2      90    7.54e-04   202.7741*  204.3508*  204.6610   205.5517   205.5700   205.8626   
      15   2      94    7.93e-04   202.7741*  204.3508*  204.6358   205.5391   205.5539   205.8625   
      16   3      98    4.81e-04   202.7741*  204.3508*  204.6110   205.5134   205.5525   205.8623*  
      17   3      101   2.11e-04   202.7741*  204.3508*  204.6051   205.4958   205.5522   205.8622*  
      18   4      104   5.80e-05   202.7741*  204.3508*  204.6014   205.4892   205.5520*  205.8623*  
      19   4      106   3.51e-05   202.7741*  204.3508*  204.6003   205.4875   205.5520*  205.8623*  
      20   4      108   1.97e-05   202.7741*  204.3508*  204.6001   205.4861   205.5520*  205.8623*  
      21   5      110   9.39e-06   202.7741*  204.3508*  204.6000*  205.4854   205.5520*  205.8623*  
      22   5      111   4.15e-06   202.7741*  204.3508*  204.5999*  205.4848   205.5520*  205.8623*  
      23   6      112   2.91e-06   202.7741*  204.3508*  204.5998*  205.4848*  205.5520*  205.8623*  

     Davidson procedure converged

 EOMEE transition 1/B2
 Total energy = -683.23098032 a.u.  Excitation energy = 202.7741 eV.
 R0^2 = 0.0000  R1^2 = 0.8873  R2_CCVV^2 = 0.0038  R2_COVV^2 = 0.0544  Res^2 = 1.58e-06
 Conv-d = yes

 Amplitude    Transitions between orbitals
 -0.2832       1 (B2) A                  ->    29 (A1) A                  
 -0.2832       1 (B2) B                  ->    29 (A1) B                  
 -0.2756       1 (B2) A                  ->    28 (A1) A                  
 -0.2756       1 (B2) B                  ->    28 (A1) B                  
  0.2534       1 (B2) A                  ->    32 (A1) A                  
  0.2534       1 (B2) B                  ->    32 (A1) B                  
 -0.2412       1 (B2) A                  ->    37 (A1) A                  
 -0.2412       1 (B2) B                  ->    37 (A1) B                  
 -0.1944       1 (B2) A                  ->    35 (A1) A                  
 -0.1944       1 (B2) B                  ->    35 (A1) B                  
 -0.1433       1 (B2) A                  ->    25 (A1) A                  
 -0.1433       1 (B2) B                  ->    25 (A1) B                  
  0.1292       1 (B2) A                  ->    27 (A1) A                  
  0.1292       1 (B2) B                  ->    27 (A1) B                  
 -0.1177       1 (B2) A                  ->    38 (A1) A                  
 -0.1177       1 (B2) B                  ->    38 (A1) B                  
  0.1161       1 (B2) A                  ->    36 (A1) A                  
  0.1161       1 (B2) B                  ->    36 (A1) B                  
 -0.1023       1 (B2) A                  ->    30 (A1) A                  
 -0.1023       1 (B2) B                  ->    30 (A1) B                  

              Summary of significant orbitals:

               Number  Type             Irrep      Energy
               11      Occ  Alpha       1 (B2)     -8.0311
               11      Occ  Beta        1 (B2)     -8.0311
               52      Vir  Alpha      25 (A1)      0.0913
               58      Vir  Alpha      27 (A1)      0.1260
               60      Vir  Alpha      28 (A1)      0.1691
               62      Vir  Alpha      29 (A1)      0.1762
               65      Vir  Alpha      30 (A1)      0.1918
               69      Vir  Alpha      32 (A1)      0.2216
               79      Vir  Alpha      35 (A1)      0.2645
               80      Vir  Alpha      36 (A1)      0.2796
               83      Vir  Alpha      37 (A1)      0.3027
               84      Vir  Alpha      38 (A1)      0.3138
               52      Vir  Beta       25 (A1)      0.0913
               58      Vir  Beta       27 (A1)      0.1260
               60      Vir  Beta       28 (A1)      0.1691
               62      Vir  Beta       29 (A1)      0.1762
               65      Vir  Beta       30 (A1)      0.1918
               69      Vir  Beta       32 (A1)      0.2216
[...]
      5    5      31    5.64e-06   202.7740*  204.3508*  204.5999   205.4847*  205.5520*  205.8622*  
      6    6      32    3.99e-06   202.7740*  204.3508*  204.5999*  205.4847*  205.5520*  205.8622*  

     Davidson procedure converged

 CVS-EOMEE-CCSD calculation:   CPU 33762.98 s  wall 5210.97 s


 Start computing the transition properties

 ------------------------------------------------------------------------------
 State A: ccsd: 0/A1
 State B: cvs_eomee_ccsd/rhfref/singlets: 1/A1
 Transition dipole moment (a.u.):
   A->B: 0.005047 (X 0.000000, Y 0.000000, Z 0.005047)
   B->A: 0.005257 (X 0.000000, Y 0.000000, Z 0.005257)
 Oscillator strength (a.u.): 0.000132
 Norm of one-particle transition density matrix:
   A->B: 0.922699;   B->A: 0.923485
   ||gamma^AB||*||gamma^BA||: 0.852099

 ------------------------------------------------------------------------------
 State A: ccsd: 0/A1
 State B: cvs_eomee_ccsd/rhfref/singlets: 2/A1
 Transition dipole moment (a.u.):
   A->B: 0.008946 (X 0.000000, Y 0.000000, Z 0.008946)
   B->A: 0.011023 (X 0.000000, Y 0.000000, Z 0.011023)
 Oscillator strength (a.u.): 0.000494
 Norm of one-particle transition density matrix:
   A->B: 0.914943;   B->A: 0.909968
   ||gamma^AB||*||gamma^BA||: 0.832568

 ------------------------------------------------------------------------------
 State A: ccsd: 0/A1
 State B: cvs_eomee_ccsd/rhfref/singlets: 3/A1
 Transition dipole moment (a.u.):
   A->B: 0.027042 (X 0.000000, Y 0.000000, Z -0.027042)
   B->A: 0.027910 (X 0.000000, Y 0.000000, Z -0.027910)
 Oscillator strength (a.u.): 0.003782
 Norm of one-particle transition density matrix:
   A->B: 0.909768;   B->A: 0.907904
   ||gamma^AB||*||gamma^BA||: 0.825982

 ------------------------------------------------------------------------------
 State A: ccsd: 0/A1
 State B: cvs_eomee_ccsd/rhfref/singlets: 4/A1
 Transition dipole moment (a.u.):
   A->B: 0.001965 (X 0.000000, Y 0.000000, Z -0.001965)
   B->A: 0.002155 (X 0.000000, Y 0.000000, Z -0.002155)
 Oscillator strength (a.u.): 0.000021
 Norm of one-particle transition density matrix:
   A->B: 0.928990;   B->A: 0.908093
   ||gamma^AB||*||gamma^BA||: 0.843609

 ------------------------------------------------------------------------------
 State A: ccsd: 0/A1
 State B: cvs_eomee_ccsd/rhfref/singlets: 5/A1
 Transition dipole moment (a.u.):
   A->B: 0.001894 (X 0.000000, Y 0.000000, Z -0.001894)
   B->A: 0.001834 (X 0.000000, Y 0.000000, Z -0.001834)
 Oscillator strength (a.u.): 0.000017
 Norm of one-particle transition density matrix:
   A->B: 0.927419;   B->A: 0.907743
   ||gamma^AB||*||gamma^BA||: 0.841858

 ------------------------------------------------------------------------------
 State A: ccsd: 0/A1
 State B: cvs_eomee_ccsd/rhfref/singlets: 6/A1
 Transition dipole moment (a.u.):
   A->B: 0.004823 (X 0.000000, Y 0.000000, Z -0.004823)
   B->A: 0.004661 (X 0.000000, Y 0.000000, Z -0.004661)
 Oscillator strength (a.u.): 0.000113
 Norm of one-particle transition density matrix:
   A->B: 0.926705;   B->A: 0.904738
   ||gamma^AB||*||gamma^BA||: 0.838425

 ------------------------------------------------------------------------------
 State A: ccsd: 0/A1
 State B: cvs_eomee_ccsd/rhfref/singlets: 1/B1
 Transition dipole moment (a.u.):
   A->B: 0.041877 (X 0.041877, Y 0.000000, Z 0.000000)
   B->A: 0.041974 (X 0.041974, Y 0.000000, Z 0.000000)
 Oscillator strength (a.u.): 0.008732
 Norm of one-particle transition density matrix:
   A->B: 0.924993;   B->A: 0.927472
   ||gamma^AB||*||gamma^BA||: 0.857905

 ------------------------------------------------------------------------------
 State A: ccsd: 0/A1
 State B: cvs_eomee_ccsd/rhfref/singlets: 2/B1
 Transition dipole moment (a.u.):
   A->B: 0.012743 (X -0.012743, Y 0.000000, Z 0.000000)
   B->A: 0.012488 (X -0.012488, Y 0.000000, Z 0.000000)
 Oscillator strength (a.u.): 0.000797
 Norm of one-particle transition density matrix:
   A->B: 0.931601;   B->A: 0.912166
   ||gamma^AB||*||gamma^BA||: 0.849775

 ------------------------------------------------------------------------------
 State A: ccsd: 0/A1
 State B: cvs_eomee_ccsd/rhfref/singlets: 3/B1
 Transition dipole moment (a.u.):
   A->B: 0.003734 (X 0.003734, Y 0.000000, Z 0.000000)
   B->A: 0.003733 (X 0.003733, Y 0.000000, Z 0.000000)
 Oscillator strength (a.u.): 0.000070
 Norm of one-particle transition density matrix:
   A->B: 0.892286;   B->A: 0.892887
   ||gamma^AB||*||gamma^BA||: 0.796710

 ------------------------------------------------------------------------------
 State A: ccsd: 0/A1
 State B: cvs_eomee_ccsd/rhfref/singlets: 4/B1
 Transition dipole moment (a.u.):
   A->B: 0.003066 (X 0.003066, Y 0.000000, Z 0.000000)
   B->A: 0.003087 (X 0.003087, Y 0.000000, Z 0.000000)
 Oscillator strength (a.u.): 0.000048
 Norm of one-particle transition density matrix:
   A->B: 0.928704;   B->A: 0.907542
   ||gamma^AB||*||gamma^BA||: 0.842838

 ------------------------------------------------------------------------------
 State A: ccsd: 0/A1
 State B: cvs_eomee_ccsd/rhfref/singlets: 5/B1
 Transition dipole moment (a.u.):
   A->B: 0.003994 (X 0.003994, Y 0.000000, Z 0.000000)
   B->A: 0.003993 (X 0.003993, Y 0.000000, Z 0.000000)
 Oscillator strength (a.u.): 0.000080
 Norm of one-particle transition density matrix:
   A->B: 0.927670;   B->A: 0.905659
   ||gamma^AB||*||gamma^BA||: 0.840152

 ------------------------------------------------------------------------------
 State A: ccsd: 0/A1
 State B: cvs_eomee_ccsd/rhfref/singlets: 6/B1
 Transition dipole moment (a.u.):
   A->B: 0.005118 (X -0.005118, Y 0.000000, Z 0.000000)
   B->A: 0.005002 (X -0.005002, Y 0.000000, Z 0.000000)
 Oscillator strength (a.u.): 0.000129
 Norm of one-particle transition density matrix:
   A->B: 0.927808;   B->A: 0.905586
   ||gamma^AB||*||gamma^BA||: 0.840210

 ------------------------------------------------------------------------------
 State A: ccsd: 0/A1
 State B: cvs_eomee_ccsd/rhfref/singlets: 1/B2
 Transition dipole moment (a.u.):
   A->B: 0.039947 (X 0.000000, Y 0.039947, Z 0.000000)
   B->A: 0.040025 (X 0.000000, Y 0.040025, Z 0.000000)
 Oscillator strength (a.u.): 0.007943
 Norm of one-particle transition density matrix:
   A->B: 0.924906;   B->A: 0.927391
   ||gamma^AB||*||gamma^BA||: 0.857750

 ------------------------------------------------------------------------------
 State A: ccsd: 0/A1
 State B: cvs_eomee_ccsd/rhfref/singlets: 2/B2
 Transition dipole moment (a.u.):
   A->B: 0.011902 (X 0.000000, Y -0.011902, Z 0.000000)
   B->A: 0.011656 (X 0.000000, Y -0.011656, Z 0.000000)
 Oscillator strength (a.u.): 0.000695
 Norm of one-particle transition density matrix:
   A->B: 0.931449;   B->A: 0.912022
   ||gamma^AB||*||gamma^BA||: 0.849502

 ------------------------------------------------------------------------------
 State A: ccsd: 0/A1
 State B: cvs_eomee_ccsd/rhfref/singlets: 3/B2
 Transition dipole moment (a.u.):
   A->B: 0.014298 (X 0.000000, Y 0.014298, Z 0.000000)
   B->A: 0.014373 (X 0.000000, Y 0.014373, Z 0.000000)
 Oscillator strength (a.u.): 0.001030
 Norm of one-particle transition density matrix:
   A->B: 0.894750;   B->A: 0.898411
   ||gamma^AB||*||gamma^BA||: 0.803853

 ------------------------------------------------------------------------------
 State A: ccsd: 0/A1
 State B: cvs_eomee_ccsd/rhfref/singlets: 4/B2
 Transition dipole moment (a.u.):
   A->B: 0.000563 (X 0.000000, Y -0.000563, Z 0.000000)
   B->A: 0.000777 (X 0.000000, Y -0.000777, Z 0.000000)
 Oscillator strength (a.u.): 0.000002
 Norm of one-particle transition density matrix:
   A->B: 0.928628;   B->A: 0.908541
   ||gamma^AB||*||gamma^BA||: 0.843697

 ------------------------------------------------------------------------------
 State A: ccsd: 0/A1
 State B: cvs_eomee_ccsd/rhfref/singlets: 5/B2
 Transition dipole moment (a.u.):
   A->B: 0.000690 (X 0.000000, Y -0.000690, Z 0.000000)
   B->A: 0.000786 (X 0.000000, Y -0.000786, Z 0.000000)
 Oscillator strength (a.u.): 0.000003
 Norm of one-particle transition density matrix:
   A->B: 0.927532;   B->A: 0.905555
   ||gamma^AB||*||gamma^BA||: 0.839932

 ------------------------------------------------------------------------------
 State A: ccsd: 0/A1
 State B: cvs_eomee_ccsd/rhfref/singlets: 6/B2
 Transition dipole moment (a.u.):
   A->B: 0.000395 (X 0.000000, Y -0.000395, Z 0.000000)
   B->A: 0.000439 (X 0.000000, Y -0.000439, Z 0.000000)
 Oscillator strength (a.u.): 0.000001
 Norm of one-particle transition density matrix:
   A->B: 0.927605;   B->A: 0.905397
   ||gamma^AB||*||gamma^BA||: 0.839851


 All requested transition properties have been computed

 Transition Properties:   CPU 91.22 s  wall 19.94 s

 Total ccman2 time:   CPU 35239.63 s  wall 5443.95 s


 --------------------------------------------------------------
             Orbital Energies (a.u.) and Symmetries
 --------------------------------------------------------------

 Alpha MOs, Restricted
 -- Occupied --                  
-104.84  -11.31  -11.25  -11.25  -11.25  -11.25  -11.25  -10.57
  1 A1    2 A1    3 A1    1 B1    4 A1    2 B1    5 A1    6 A1                 
 -8.034  -8.031  -8.031  -1.196  -1.124  -1.036  -1.000  -0.850
  7 A1    3 B1    1 B2    8 A1    9 A1    4 B1   10 A1    5 B1                 
 -0.823  -0.715  -0.651  -0.651  -0.607  -0.593  -0.547  -0.520
 11 A1   12 A1    6 B1   13 A1    7 B1   14 A1    2 B2    8 B1                 
 -0.515  -0.471  -0.456  -0.354  -0.338
 15 A1    3 B2    9 B1    1 A2    4 B2                                         
 -- Virtual --                   
  0.014   0.020   0.021   0.032   0.032   0.033   0.043   0.044
 16 A1   10 B1   17 A1    5 B2   18 A1   11 B1    2 A2    6 B2                 
  0.045   0.048   0.054   0.055   0.056   0.063   0.063   0.065
 19 A1   20 A1   12 B1    3 A2    7 B2   21 A1    8 B2   13 B1                 
  0.068   0.069   0.070   0.073   0.074   0.078   0.091   0.096
 22 A1    9 B2   14 B1   23 A1   15 B1   24 A1   25 A1   16 B1                 
  0.100   0.102   0.103   0.106   0.126   0.163   0.169   0.172
 26 A1    4 A2   10 B2   17 B1   27 A1   11 B2   28 A1   18 B1                 
  0.176   0.180   0.181   0.192   0.211   0.213   0.214   0.222
 29 A1    5 A2   12 B2   30 A1   19 B1   31 A1   13 B2   32 A1                 
  0.222   0.229   0.232   0.235   0.238   0.243   0.244   0.247
 20 B1   14 B2    6 A2   21 B1   33 A1   15 B2   34 A1   22 B1                 
  0.252   0.264   0.280   0.291   0.295   0.303   0.314   0.330
 23 B1   35 A1   36 A1   24 B1   25 B1   37 A1   38 A1   26 B1                 
  0.357   0.366   0.378   0.414   0.418   0.432   0.441   0.491
 16 B2   39 A1   40 A1   41 A1   27 B1   42 A1   28 B1   43 A1                 
  0.500   0.509   0.509   0.621   0.631   0.643   0.652   0.663
 29 B1   30 B1   44 A1   45 A1   31 B1   32 B1   17 B2   46 A1                 
  0.721   0.735   0.743   0.745   0.745   0.772   0.782   0.795
 47 A1   33 B1   18 B2   48 A1   34 B1    7 A2   19 B2   35 B1                 
  0.822   0.823   0.829   0.882   0.884   0.905   0.936   0.938
  8 A2   20 B2   49 A1   50 A1   21 B2   51 A1   52 A1   36 B1                 
  0.956   0.993   1.018   1.026   1.053   1.065   1.067   1.089
 37 B1   53 A1   38 B1   54 A1   55 A1   39 B1   22 B2   56 A1                 
  1.113   1.128   1.133   1.139   1.188   1.212   1.225   1.225
 57 A1   40 B1   41 B1    9 A2   58 A1   42 B1   23 B2   59 A1                 
  1.235   1.275   1.309   1.352   1.376   1.444   1.468   1.501
 10 A2   60 A1   11 A2   24 B2   12 A2   61 A1   43 B1   62 A1                 
  1.581   1.665   1.728   1.786   1.788   1.824   1.831   1.845
 25 B2   63 A1   44 B1   64 A1   45 B1   26 B2   13 A2   65 A1                 
  1.891   1.910   1.911   1.964   2.004   2.007   2.042   2.105
 27 B2   66 A1   46 B1   67 A1   47 B1   28 B2   14 A2   48 B1                 
  2.173   2.218   2.220   2.221   2.236   2.244   2.287   2.326
 68 A1   49 B1   15 A2   29 B2   50 B1   69 A1   30 B2   70 A1                 
  2.354   2.368   2.392   2.579   2.614   2.647   2.684   2.750
 51 B1   16 A2   71 A1   31 B2   52 B1   17 A2   32 B2   72 A1                 
  2.780   2.801   2.813   2.879   2.920   2.956   2.982   3.016
 53 B1   73 A1   54 B1   55 B1   74 A1   75 A1   76 A1   77 A1                 
  3.020   3.026   3.046   3.046   3.067   3.191   3.194   3.206
 56 B1   78 A1   57 B1   79 A1   33 B2   34 B2   18 A2   58 B1                 
  3.211   3.284   3.288   3.321   3.474   3.567   3.634   3.761
 80 A1   35 B2   19 A2   59 B1   36 B2   60 B1   81 A1   61 B1                 
  3.787   3.905   3.922   4.031   4.210   4.400   4.458   4.547
 82 A1   62 B1   83 A1   84 A1   85 A1   63 B1   86 A1   87 A1                 
  4.559   5.263  10.541  24.688  25.075  25.130  25.224  25.254
 64 B1   65 B1   88 A1   89 A1   90 A1   66 B1   91 A1   67 B1                 
 25.346  26.795  27.056  27.520 219.409
 92 A1   37 B2   68 B1   93 A1   94 A1                                         

 Beta MOs, Restricted
 -- Occupied --                  
-104.84  -11.31  -11.25  -11.25  -11.25  -11.25  -11.25  -10.57
  1 A1    2 A1    3 A1    1 B1    4 A1    2 B1    5 A1    6 A1                 
 -8.034  -8.031  -8.031  -1.196  -1.124  -1.036  -1.000  -0.850
  7 A1    3 B1    1 B2    8 A1    9 A1    4 B1   10 A1    5 B1                 
 -0.823  -0.715  -0.651  -0.651  -0.607  -0.593  -0.547  -0.520
 11 A1   12 A1    6 B1   13 A1    7 B1   14 A1    2 B2    8 B1                 
 -0.515  -0.471  -0.456  -0.354  -0.338
 15 A1    3 B2    9 B1    1 A2    4 B2                                         
 -- Virtual --                   
  0.014   0.020   0.021   0.032   0.032   0.033   0.043   0.044
 16 A1   10 B1   17 A1    5 B2   18 A1   11 B1    2 A2    6 B2                 
  0.045   0.048   0.054   0.055   0.056   0.063   0.063   0.065
 19 A1   20 A1   12 B1    3 A2    7 B2   21 A1    8 B2   13 B1                 
  0.068   0.069   0.070   0.073   0.074   0.078   0.091   0.096
 22 A1    9 B2   14 B1   23 A1   15 B1   24 A1   25 A1   16 B1                 
  0.100   0.102   0.103   0.106   0.126   0.163   0.169   0.172
 26 A1    4 A2   10 B2   17 B1   27 A1   11 B2   28 A1   18 B1                 
  0.176   0.180   0.181   0.192   0.211   0.213   0.214   0.222
 29 A1    5 A2   12 B2   30 A1   19 B1   31 A1   13 B2   32 A1                 
  0.222   0.229   0.232   0.235   0.238   0.243   0.244   0.247
 20 B1   14 B2    6 A2   21 B1   33 A1   15 B2   34 A1   22 B1                 
  0.252   0.264   0.280   0.291   0.295   0.303   0.314   0.330
 23 B1   35 A1   36 A1   24 B1   25 B1   37 A1   38 A1   26 B1                 
  0.357   0.366   0.378   0.414   0.418   0.432   0.441   0.491
 16 B2   39 A1   40 A1   41 A1   27 B1   42 A1   28 B1   43 A1                 
  0.500   0.509   0.509   0.621   0.631   0.643   0.652   0.663
 29 B1   30 B1   44 A1   45 A1   31 B1   32 B1   17 B2   46 A1                 
  0.721   0.735   0.743   0.745   0.745   0.772   0.782   0.795
 47 A1   33 B1   18 B2   48 A1   34 B1    7 A2   19 B2   35 B1                 
  0.822   0.823   0.829   0.882   0.884   0.905   0.936   0.938
  8 A2   20 B2   49 A1   50 A1   21 B2   51 A1   52 A1   36 B1                 
  0.956   0.993   1.018   1.026   1.053   1.065   1.067   1.089
 37 B1   53 A1   38 B1   54 A1   55 A1   39 B1   22 B2   56 A1                 
  1.113   1.128   1.133   1.139   1.188   1.212   1.225   1.225
 57 A1   40 B1   41 B1    9 A2   58 A1   42 B1   23 B2   59 A1                 
  1.235   1.275   1.309   1.352   1.376   1.444   1.468   1.501
 10 A2   60 A1   11 A2   24 B2   12 A2   61 A1   43 B1   62 A1                 
  1.581   1.665   1.728   1.786   1.788   1.824   1.831   1.845
 25 B2   63 A1   44 B1   64 A1   45 B1   26 B2   13 A2   65 A1                 
  1.891   1.910   1.911   1.964   2.004   2.007   2.042   2.105
 27 B2   66 A1   46 B1   67 A1   47 B1   28 B2   14 A2   48 B1                 
  2.173   2.218   2.220   2.221   2.236   2.244   2.287   2.326
 68 A1   49 B1   15 A2   29 B2   50 B1   69 A1   30 B2   70 A1                 
  2.354   2.368   2.392   2.579   2.614   2.647   2.684   2.750
 51 B1   16 A2   71 A1   31 B2   52 B1   17 A2   32 B2   72 A1                 
  2.780   2.801   2.813   2.879   2.920   2.956   2.982   3.016
 53 B1   73 A1   54 B1   55 B1   74 A1   75 A1   76 A1   77 A1                 
  3.020   3.026   3.046   3.046   3.067   3.191   3.194   3.206
 56 B1   78 A1   57 B1   79 A1   33 B2   34 B2   18 A2   58 B1                 
  3.211   3.284   3.288   3.321   3.474   3.567   3.634   3.761
 80 A1   35 B2   19 A2   59 B1   36 B2   60 B1   81 A1   61 B1                 
  3.787   3.905   3.922   4.031   4.210   4.400   4.458   4.547
 82 A1   62 B1   83 A1   84 A1   85 A1   63 B1   86 A1   87 A1                 
  4.559   5.263  10.541  24.688  25.075  25.130  25.224  25.254
 64 B1   65 B1   88 A1   89 A1   90 A1   66 B1   91 A1   67 B1                 
 25.346  26.795  27.056  27.520 219.409
 92 A1   37 B2   68 B1   93 A1   94 A1                                         
 --------------------------------------------------------------

          Ground-State Mulliken Net Atomic Charges

     Atom                 Charge (a.u.)
  ----------------------------------------
      1 H                     0.197292
      2 C                    -0.483136
      3 C                    -0.337542
      4 H                     0.231679
      5 C                    -0.370492
      6 H                     0.187345
      7 C                    -0.337542
      8 H                     0.231679
      9 C                    -0.483136
     10 H                     0.197292
     11 C                     0.401812
     12 Cl                    0.564748
  ----------------------------------------
  Sum of atomic charges =    -0.000000

 -----------------------------------------------------------------
                    Cartesian Multipole Moments
 -----------------------------------------------------------------
    Charge (ESU x 10^10)
                -0.0000
    Dipole Moment (Debye)
         X      -0.0000      Y      -0.0000      Z      -1.9695
       Tot       1.9695
    Quadrupole Moments (Debye-Ang)
        XX     -42.4467     XY       0.0000     YY     -52.7652
        XZ       0.0000     YZ      -0.0000     ZZ     -46.7144
    Octopole Moments (Debye-Ang^2)
       XXX       0.0000    XXY      -0.0000    XYY      -0.0000
       YYY       0.0000    XXZ      -1.4033    XYZ       0.0000
       YYZ       7.5207    XZZ       0.0000    YZZ      -0.0000
       ZZZ      -6.2630
    Hexadecapole Moments (Debye-Ang^3)
      XXXX    -275.3105   XXXY      -0.0000   XXYY     -69.6108
      XYYY      -0.0000   YYYY     -64.8246   XXXZ       0.0000
      XXYZ       0.0000   XYYZ      -0.0000   YYYZ       0.0000
      XXZZ    -181.1129   XYZZ       0.0000   YYZZ    -166.0113
      XZZZ      -0.0000   YZZZ       0.0000   ZZZZ    -786.9915
 -----------------------------------------------------------------
Archival summary:
1\1\node24\SP\ProcedureUnspecified\BasisUnspecified\l165\krylov\SunOct1401:54:072018SunOct1401:54:072018\0\\#,ProcedureUnspecified,BasisUnspecified,\\0,1\Cl\C,1,1.73093\C,2,1.39121,1,119.398\H,3,1.08039,2,119.798,1,0,0\C,2,1.39121,1,119.398,3,-180,0\H,5,1.08039,2,119.798,1,0,0\C,3,1.39191,2,119.079,1,180,0\H,7,1.08135,3,119.367,2,-180,0\C,5,1.39191,2,119.079,1,-180,0\H,9,1.08135,5,119.367,2,180,0\C,7,1.39245,3,120.451,2,0,0\H,11,1.08085,7,120.132,3,-180,0\\HF=-689.680436\\@

 Total job time:  5475.71s(wall), 35322.15s(cpu) 
 Sun Oct 14 01:54:07 2018

        *************************************************************
        *                                                           *
        *  Thank you very much for using Q-Chem.  Have a nice day.  *
        *                                                           *
        *************************************************************


