[Molden Format]
[Atoms] (Angs)
  H      1    1     -2.14344049      0.00000000     -0.22359064
  C      2    6     -1.21326725     -0.00000000     -0.77278636
  C      3    6     -1.20502948     -0.00000000     -2.16587022
  H      4    1     -2.14438543     -0.00000000     -2.70149179
  C      5    6      0.00000000     -0.00000000     -2.86507761
  H      6    1      0.00000000     -0.00000000     -3.94588772
  C      7    6      1.20502948     -0.00000000     -2.16587022
  H      8    1      2.14438543     -0.00000000     -2.70149179
  C      9    6      1.21326725     -0.00000000     -0.77278636
  H     10    1      2.14344049     -0.00000000     -0.22359064
  C     11    6     -0.00000000     -0.00000000     -0.08999076
 Br     12   35     -0.00000000      0.00000000      1.79400976
[GTO]
1    0
S    3    1.000000
   3.38650000E+01    2.54938000E-02 
   5.09479000E+00    1.90373000E-01 
   1.15879000E+00    8.52161000E-01 
S    1    1.000000
   3.25840000E-01    1.00000000E+00 
S    1    1.000000
   1.02741000E-01    1.00000000E+00 
S    1    1.000000
   3.60000000E-02    1.00000000E+00 
P    1    1.000000
   7.50000000E-01    1.00000000E+00 

2    0
S    1    1.000000
   4.56324000E+03    1.96665000E-03 
S    1    1.000000
   6.82024000E+02    1.52306000E-02 
S    1    1.000000
   1.54973000E+02    7.61269000E-02 
S    1    1.000000
   4.44553000E+01    2.60801000E-01 
S    1    1.000000
   1.30290000E+01    6.16462000E-01 
S    1    1.000000
   1.82773000E+00    2.21006000E-01 
SP   3    1.000000
   2.09642000E+01    1.14660000E-01   4.02487000E-02 
   4.80331000E+00    9.19999000E-01   2.37594000E-01 
   1.45933000E+00   -3.03068000E-03   8.15854000E-01 
SP   1    1.000000
   4.83456000E-01    1.00000000E+00   1.00000000E+00 
SP   1    1.000000
   1.45585000E-01    1.00000000E+00   1.00000000E+00 
SP   1    1.000000
   4.38000000E-02    1.00000000E+00   1.00000000E+00 
SP   1    1.000000
   1.31927711E-02    1.00000000E+00   1.00000000E+00 
D    1    1.000000
   6.26000000E-01    1.00000000E+00 

3    0
S    1    1.000000
   4.56324000E+03    1.96665000E-03 
S    1    1.000000
   6.82024000E+02    1.52306000E-02 
S    1    1.000000
   1.54973000E+02    7.61269000E-02 
S    1    1.000000
   4.44553000E+01    2.60801000E-01 
S    1    1.000000
   1.30290000E+01    6.16462000E-01 
S    1    1.000000
   1.82773000E+00    2.21006000E-01 
SP   3    1.000000
   2.09642000E+01    1.14660000E-01   4.02487000E-02 
   4.80331000E+00    9.19999000E-01   2.37594000E-01 
   1.45933000E+00   -3.03068000E-03   8.15854000E-01 
SP   1    1.000000
   4.83456000E-01    1.00000000E+00   1.00000000E+00 
SP   1    1.000000
   1.45585000E-01    1.00000000E+00   1.00000000E+00 
SP   1    1.000000
   4.38000000E-02    1.00000000E+00   1.00000000E+00 
SP   1    1.000000
   1.31927711E-02    1.00000000E+00   1.00000000E+00 
D    1    1.000000
   6.26000000E-01    1.00000000E+00 

4    0
S    3    1.000000
   3.38650000E+01    2.54938000E-02 
   5.09479000E+00    1.90373000E-01 
   1.15879000E+00    8.52161000E-01 
S    1    1.000000
   3.25840000E-01    1.00000000E+00 
S    1    1.000000
   1.02741000E-01    1.00000000E+00 
S    1    1.000000
   3.60000000E-02    1.00000000E+00 
P    1    1.000000
   7.50000000E-01    1.00000000E+00 

5    0
S    1    1.000000
   4.56324000E+03    1.96665000E-03 
S    1    1.000000
   6.82024000E+02    1.52306000E-02 
S    1    1.000000
   1.54973000E+02    7.61269000E-02 
S    1    1.000000
   4.44553000E+01    2.60801000E-01 
S    1    1.000000
   1.30290000E+01    6.16462000E-01 
S    1    1.000000
   1.82773000E+00    2.21006000E-01 
SP   3    1.000000
   2.09642000E+01    1.14660000E-01   4.02487000E-02 
   4.80331000E+00    9.19999000E-01   2.37594000E-01 
   1.45933000E+00   -3.03068000E-03   8.15854000E-01 
SP   1    1.000000
   4.83456000E-01    1.00000000E+00   1.00000000E+00 
SP   1    1.000000
   1.45585000E-01    1.00000000E+00   1.00000000E+00 
SP   1    1.000000
   4.38000000E-02    1.00000000E+00   1.00000000E+00 
SP   1    1.000000
   1.31927711E-02    1.00000000E+00   1.00000000E+00 
D    1    1.000000
   6.26000000E-01    1.00000000E+00 

6    0
S    3    1.000000
   3.38650000E+01    2.54938000E-02 
   5.09479000E+00    1.90373000E-01 
   1.15879000E+00    8.52161000E-01 
S    1    1.000000
   3.25840000E-01    1.00000000E+00 
S    1    1.000000
   1.02741000E-01    1.00000000E+00 
S    1    1.000000
   3.60000000E-02    1.00000000E+00 
P    1    1.000000
   7.50000000E-01    1.00000000E+00 

7    0
S    1    1.000000
   4.56324000E+03    1.96665000E-03 
S    1    1.000000
   6.82024000E+02    1.52306000E-02 
S    1    1.000000
   1.54973000E+02    7.61269000E-02 
S    1    1.000000
   4.44553000E+01    2.60801000E-01 
S    1    1.000000
   1.30290000E+01    6.16462000E-01 
S    1    1.000000
   1.82773000E+00    2.21006000E-01 
SP   3    1.000000
   2.09642000E+01    1.14660000E-01   4.02487000E-02 
   4.80331000E+00    9.19999000E-01   2.37594000E-01 
   1.45933000E+00   -3.03068000E-03   8.15854000E-01 
SP   1    1.000000
   4.83456000E-01    1.00000000E+00   1.00000000E+00 
SP   1    1.000000
   1.45585000E-01    1.00000000E+00   1.00000000E+00 
SP   1    1.000000
   4.38000000E-02    1.00000000E+00   1.00000000E+00 
SP   1    1.000000
   1.31927711E-02    1.00000000E+00   1.00000000E+00 
D    1    1.000000
   6.26000000E-01    1.00000000E+00 

8    0
S    3    1.000000
   3.38650000E+01    2.54938000E-02 
   5.09479000E+00    1.90373000E-01 
   1.15879000E+00    8.52161000E-01 
S    1    1.000000
   3.25840000E-01    1.00000000E+00 
S    1    1.000000
   1.02741000E-01    1.00000000E+00 
S    1    1.000000
   3.60000000E-02    1.00000000E+00 
P    1    1.000000
   7.50000000E-01    1.00000000E+00 

9    0
S    1    1.000000
   4.56324000E+03    1.96665000E-03 
S    1    1.000000
   6.82024000E+02    1.52306000E-02 
S    1    1.000000
   1.54973000E+02    7.61269000E-02 
S    1    1.000000
   4.44553000E+01    2.60801000E-01 
S    1    1.000000
   1.30290000E+01    6.16462000E-01 
S    1    1.000000
   1.82773000E+00    2.21006000E-01 
SP   3    1.000000
   2.09642000E+01    1.14660000E-01   4.02487000E-02 
   4.80331000E+00    9.19999000E-01   2.37594000E-01 
   1.45933000E+00   -3.03068000E-03   8.15854000E-01 
SP   1    1.000000
   4.83456000E-01    1.00000000E+00   1.00000000E+00 
SP   1    1.000000
   1.45585000E-01    1.00000000E+00   1.00000000E+00 
SP   1    1.000000
   4.38000000E-02    1.00000000E+00   1.00000000E+00 
SP   1    1.000000
   1.31927711E-02    1.00000000E+00   1.00000000E+00 
D    1    1.000000
   6.26000000E-01    1.00000000E+00 

10    0
S    3    1.000000
   3.38650000E+01    2.54938000E-02 
   5.09479000E+00    1.90373000E-01 
   1.15879000E+00    8.52161000E-01 
S    1    1.000000
   3.25840000E-01    1.00000000E+00 
S    1    1.000000
   1.02741000E-01    1.00000000E+00 
S    1    1.000000
   3.60000000E-02    1.00000000E+00 
P    1    1.000000
   7.50000000E-01    1.00000000E+00 

11    0
S    1    1.000000
   4.56324000E+03    1.96665000E-03 
S    1    1.000000
   6.82024000E+02    1.52306000E-02 
S    1    1.000000
   1.54973000E+02    7.61269000E-02 
S    1    1.000000
   4.44553000E+01    2.60801000E-01 
S    1    1.000000
   1.30290000E+01    6.16462000E-01 
S    1    1.000000
   1.82773000E+00    2.21006000E-01 
SP   3    1.000000
   2.09642000E+01    1.14660000E-01   4.02487000E-02 
   4.80331000E+00    9.19999000E-01   2.37594000E-01 
   1.45933000E+00   -3.03068000E-03   8.15854000E-01 
SP   1    1.000000
   4.83456000E-01    1.00000000E+00   1.00000000E+00 
SP   1    1.000000
   1.45585000E-01    1.00000000E+00   1.00000000E+00 
SP   1    1.000000
   4.38000000E-02    1.00000000E+00   1.00000000E+00 
SP   1    1.000000
   1.31927711E-02    1.00000000E+00   1.00000000E+00 
D    1    1.000000
   6.26000000E-01    1.00000000E+00 

12    0
S    6    1.000000
   4.39700000E+05    8.13000000E-04 
   6.60300000E+04    6.28500000E-03 
   1.51400000E+04    3.19200000E-02 
   4.31700000E+03    1.28800000E-01 
   1.41400000E+03    3.94600000E-01 
   5.23900000E+02    5.41300000E-01 
S    3    1.000000
   5.23900000E+02    1.83100000E-01 
   2.07700000E+02    6.17600000E-01 
   8.65400000E+01    2.53800000E-01 
S    1    1.000000
   3.05200000E+01    1.00000000E+00 
S    1    1.000000
   1.29800000E+01    1.00000000E+00 
S    1    1.000000
   4.41200000E+00    1.00000000E+00 
S    1    1.000000
   1.86200000E+00    1.00000000E+00 
S    1    1.000000
   3.93200000E-01    1.00000000E+00 
S    1    1.000000
   1.40000000E-01    1.00000000E+00 
P    3    1.000000
   2.95700000E+03    2.22600000E-02 
   7.00300000E+02    1.80200000E-01 
   2.24600000E+02    8.62400000E-01 
P    3    1.000000
   8.25900000E+01    3.44000000E-01 
   3.31900000E+01    5.07100000E-01 
   1.42000000E+01    2.59000000E-01 
P    3    1.000000
   1.42000000E+01    7.96500000E-02 
   7.43800000E+00    3.73400000E-01 
   3.52600000E+00    6.04900000E-01 
P    1    1.000000
   1.59500000E+00    1.00000000E+00 
P    1    1.000000
   8.46200000E-01    1.00000000E+00 
P    1    1.000000
   3.18600000E-01    1.00000000E+00 
P    1    1.000000
   1.09600000E-01    1.00000000E+00 
D    4    1.000000
   1.34800000E+02    1.83100000E-02 
   3.63900000E+01    1.35000000E-01 
   1.21600000E+01    4.26100000E-01 
   4.34100000E+00    6.04300000E-01 
D    1    1.000000
   1.53500000E+00    1.00000000E+00 
SP   1    1.000000
   3.90000000E-02    1.00000000E+00   1.00000000E+00 
SP   1    1.000000
   1.17469880E-02    1.00000000E+00   1.00000000E+00 
D    1    1.000000
   4.15000000E-01    1.00000000E+00 

[MO]
Sym=X
Ene= 2.000708
Spin=Alpha
Occup=1
     1    8.527995558678e-14
     2    1.975169995424e-12
     3   -8.245148420331e-12
     4   -7.422564570761e-12
     5    6.797330844223e-14
     6   -9.215689432454e-04
     7   -2.827207173055e-14
     8   -2.614402361346e-15
     9   -1.772757923337e-14
    10   -9.280258096367e-14
    11   -3.169276106276e-13
    12   -7.520580411804e-13
    13   -2.306999407455e-13
    14   -1.016940071880e-12
    15    3.050341724573e-13
    16   -2.050982113750e-02
    17    3.731449889110e-14
    18    7.761560876006e-14
    19    9.694548177526e-13
    20   -3.557531280148e-02
    21    1.811198504769e-13
    22   -3.584864941028e-12
    23   -3.328041972059e-12
    24   -1.607956861956e-02
    25   -1.450506275892e-12
    26    5.755847853473e-11
    27    6.932686158024e-12
    28    2.116742260939e-02
    29    3.540579788463e-11
    30   -7.949210498374e-12
    31   -7.391101139531e-11
    32   -6.279184202819e-03
    33    5.730094620581e-11
    34   -1.041929555776e-13
    35   -6.762099432229e-14
    36    2.002886011518e-02
    37   -3.597173573483e-14
    38    2.610166922668e-03
    39    2.967487183314e-15
    40    2.361065072655e-14
    41    1.135145471890e-13
    42    4.017588800207e-13
    43    9.414024665697e-13
    44    5.504887572317e-13
    45    1.165393436015e-12
    46   -4.374756232824e-13
    47   -1.120396509887e-01
    48   -1.222797873506e-14
    49   -9.076613370463e-13
    50   -7.387813671117e-13
    51   -1.940209481413e-01
    52   -2.137537553645e-13
    53    1.514299149776e-12
    54    1.005699673832e-13
    55   -1.601361515000e-01
    56    1.285931469419e-12
    57    3.410359232687e-11
    58    6.536121079351e-12
    59   -1.503414228178e-02
    60    1.492059325695e-11
    61   -8.443057424544e-12
    62    4.492829024739e-11
    63    3.941753928998e-03
    64   -5.036032517394e-11
    65    3.394002066202e-14
    66    2.118685852402e-13
    67    3.942726253222e-03
    68   -8.978131413607e-15
    69   -2.314898460922e-02
    70    1.607750925205e-13
    71   -1.345654128891e-12
    72    4.173272151077e-12
    73    1.658759661705e-11
    74    8.155786150361e-15
    75   -8.402122673166e-03
    76   -2.232988414399e-14
    77   -9.012133942466e-16
    78   -6.540195264148e-15
    79   -2.947414401552e-14
    80   -1.087850374615e-13
    81   -2.780255071311e-13
    82   -2.126594373009e-13
    83   -2.826771810084e-13
    84    8.439690119805e-13
    85   -1.545712110784e-01
    86   -3.238279982706e-13
    87    1.112987614223e-13
    88    2.281493063216e-12
    89   -2.672737747439e-01
    90   -4.648253988286e-13
    91   -1.491587771914e-13
    92   -3.309880351692e-12
    93   -2.300922296849e-01
    94   -9.753426276385e-13
    95    8.423482406259e-12
    96    2.261938236585e-12
    97   -1.426846541311e-02
    98   -8.335335118074e-12
    99   -2.255482223229e-12
   100   -2.824483645074e-11
   101   -6.173367265591e-03
   102    1.906340314535e-11
   103   -2.796168811547e-14
   104   -2.582691252776e-15
   105   -2.243961025266e-02
   106    5.355591003368e-15
   107    5.371024896072e-13
   108    3.238451267107e-13
   109    7.591420581653e-13
   110   -2.194892029039e-12
   111   -1.141013650656e-11
   112   -9.628929363680e-15
   113   -1.193880342339e-02
   114    1.377043500542e-13
   115   -1.610231509500e-15
   116   -1.215135281840e-14
   117   -6.192165953879e-14
   118   -2.023551125930e-13
   119   -5.361984676334e-13
   120   -3.090213834900e-13
   121   -4.861896041030e-13
   122   -3.455212176460e-13
   123   -1.120396509850e-01
   124   -2.290954505252e-13
   125    6.135853200754e-13
   126   -7.929018347599e-13
   127   -1.940209481361e-01
   128   -4.015425297350e-13
   129   -2.600652825983e-12
   130   -4.042532939054e-13
   131   -1.601361514782e-01
   132   -1.986108190243e-12
   133   -2.660628871040e-11
   134    7.789980148278e-12
   135   -1.503414238069e-02
   136   -6.284502303599e-12
   137    7.097336242733e-12
   138    3.527094741689e-11
   139    3.941753665488e-03
   140    1.582759302006e-11
   141    1.376319571125e-13
   142    3.078203705748e-13
   143    3.942726252960e-03
   144    1.046232412538e-13
   145    2.314898460909e-02
   146   -1.780687513657e-13
   147    1.450661912563e-12
   148   -3.738227236935e-12
   149   -1.357265162443e-11
   150   -9.858442081233e-16
   151   -8.402122673090e-03
   152    1.461583349438e-14
   153    1.820806948458e-15
   154    1.529290754983e-14
   155    7.605909962868e-14
   156    2.629820377643e-13
   157    6.115316577003e-13
   158    2.331784715125e-13
   159    7.712872888391e-13
   160    2.903961741840e-13
   161   -2.050982114116e-02
   162    2.615207197677e-13
   163    7.201216418828e-14
   164    1.281551639961e-12
   165   -3.557531280596e-02
   166    3.785225543899e-13
   167    6.446265296075e-12
   168   -3.615005029635e-12
   169   -1.607956864183e-02
   170    6.817614376371e-13
   171   -6.553700435177e-11
   172   -1.794227772414e-12
   173    2.116742270797e-02
   174   -3.593122269000e-11
   175    4.838197986404e-12
   176   -6.603840678303e-11
   177   -6.279183933018e-03
   178   -2.887406347657e-11
   179   -8.036889625663e-14
   180    6.697240652362e-14
   181    2.002886011466e-02
   182   -6.777440055202e-15
   183   -2.610166922365e-03
   184    2.996195071085e-13
   185   -2.098949833343e-12
   186    9.633505560253e-12
   187    1.857877849296e-11
   188    9.356016434981e-15
   189   -9.215689432908e-04
   190    5.180874827101e-14
   191   -3.672190569700e-16
   192    1.204635262954e-16
   193   -3.082221462594e-15
   194   -8.213352910007e-16
   195   -2.730219590904e-15
   196    6.473977199677e-14
   197   -4.938993575583e-14
   198   -7.372856704439e-14
   199    9.728280053124e-02
   200   -8.074137754841e-14
   201   -2.652544341420e-16
   202   -7.632506882842e-14
   203    1.059777573686e-01
   204   -2.671094844723e-13
   205   -7.637490114708e-13
   206   -4.911565940304e-12
   207    9.493537652868e-02
   208   -6.099320988678e-13
   209   -5.970668836490e-12
   210    5.906368664525e-11
   211   -2.915654384906e-03
   212    5.072700210389e-12
   213   -5.490639696995e-12
   214    6.681813300861e-11
   215   -6.529392886347e-05
   216   -2.030443529452e-11
   217   -5.988171988858e-14
   218    1.263723573301e-13
   219    7.419053206358e-03
   220    1.323576673248e-13
   221   -3.464671453687e-13
   222   -7.074230792401e-13
   223   -1.491066033122e-12
   224    1.371890872359e-12
   225    1.463569292194e-12
   226   -2.095364110055e-12
   227   -2.486198278677e-12
   228    2.995565046201e-12
   229    2.197029614536e-12
   230   -2.238243357240e-13
   231    5.528031156226e-04
   232    4.405657360627e-14
   233   -1.651372394876e-12
   234    4.636148155583e-03
   235    4.246854978571e-13
   236    8.609806056018e-14
   237   -1.258157434510e-02
   238   -2.074585616574e-12
   239    7.001284686211e-14
   240   -5.946620274324e-03
   241   -6.681537483744e-13
   242    2.091584978484e-13
   243    1.248199684863e-02
   244    3.855829387175e-13
   245    1.364709589664e-12
   246    2.752958001983e-02
   247    6.911545571210e-13
   248   -5.857020820327e-13
   249    2.649198825522e-03
   250    8.676500507845e-13
   251   -3.199011173768e-13
   252   -3.317133465325e-12
   253    1.277950650230e-02
   254   -1.431539068959e-13
   255    1.131751724199e-12
   256   -2.088514742163e-13
   257   -1.204498574108e-12
   258    3.489370457724e-03
   259   -4.268805561872e-14
   260    4.786688659737e-13
   261   -3.664612776479e-12
   262   -1.900235543169e-12
   263   -7.279564611615e-03
   264    9.477310934469e-13
   265    1.037184570374e-11
   266    1.301173667855e-11
   267    5.279606128977e-03
   268   -1.744152371685e-13
   269   -2.799555569745e-13
   270    2.132949764546e-13
   271   -1.199436617038e-02
   272    4.936875761947e-14
   273    6.628138663637e-13
Sym=X
Ene= 2.000614
Spin=Alpha
Occup=1
     1    2.040220826413e-02
     2    3.265429164840e-02
     3    4.048826634775e-03
     4   -4.320139136105e-02
     5    1.690407509670e-03
     6   -3.398647640554e-13
     7    6.779622573219e-04
     8   -1.707249169077e-05
     9   -1.292031200953e-04
    10   -6.802919561625e-04
    11   -2.229091554506e-03
    12   -5.586678918720e-03
    13   -3.036340107130e-03
    14   -1.295709714657e-02
    15    1.502992338014e-02
    16   -2.721921399302e-12
    17    4.088228720843e-02
    18    3.382081657378e-02
    19    2.577399472313e-02
    20    2.641187607206e-12
    21    6.584499212996e-02
    22    1.428697887979e-02
    23   -1.771737302377e-02
    24   -1.271648754422e-12
    25    3.657796369141e-02
    26    1.888674450147e-01
    27    3.580771799778e-02
    28    1.660191086443e-13
    29    1.328886635167e-01
    30   -2.407892654285e-03
    31   -2.240489997454e-02
    32   -2.820593364493e-12
    33    8.172685280610e-03
    34   -3.933046160465e-03
    35   -1.139838016039e-02
    36    5.679680755318e-13
    37    4.502734788287e-03
    38   -1.492552341969e-14
    39    4.120173770863e-06
    40    3.136040725292e-05
    41    1.648599956868e-04
    42    5.422525998104e-04
    43    1.245445788282e-03
    44    1.397312677745e-04
    45    3.891544610672e-03
    46    1.410446671804e-01
    47   -2.813335305215e-12
    48   -3.315181574669e-02
    49   -5.985500009071e-03
    50    2.185379065825e-01
    51    2.657234725636e-12
    52   -4.922423255575e-02
    53   -3.170630405221e-03
    54    1.534914255931e-01
    55   -2.375910911825e-12
    56   -8.348976448803e-03
    57    5.491345794395e-02
    58   -6.912977376053e-03
    59    1.261717636111e-12
    60    9.825512345109e-02
    61    6.908453206345e-03
    62    2.673786270870e-02
    63    4.590795144019e-12
    64    2.068055663270e-03
    65    1.661524723978e-03
    66   -1.963632169212e-02
    67   -5.392023976528e-13
    68   -2.368241780743e-03
    69   -1.691705824716e-14
    70   -9.591295552180e-02
    71   -1.488472738265e-01
    72   -2.687304610804e-02
    73    2.482209726860e-02
    74   -7.934940828327e-03
    75   -3.728788381993e-13
    76   -9.987410831736e-03
    77   -6.158404295733e-14
    78   -4.567774648334e-13
    79   -2.440267882545e-12
    80   -7.909319558773e-12
    81   -2.028769816903e-11
    82   -1.090256187206e-11
    83   -4.749444468161e-11
    84   -1.482624079834e-01
    85   -3.684710599435e-13
    86    7.101401175427e-11
    87    1.368334663154e-10
    88   -2.317079533768e-01
    89   -6.263675699870e-13
    90    9.368133293267e-11
    91   -1.130466508986e-09
    92   -1.068327109393e-01
    93   -3.247048150427e-13
    94    1.455591794587e-09
    95    2.708808951640e-08
    96   -7.805011671844e-02
    97   -3.069106175459e-13
    98    1.296005656576e-08
    99    2.096807403241e-09
   100   -3.082070097167e-02
   101   -5.406565487433e-12
   102   -2.045263892475e-10
   103    3.163291034320e-11
   104   -2.791291418591e-02
   105   -7.047232780306e-14
   106   -1.107706040383e-11
   107    9.467759365147e-13
   108    4.660586193169e-11
   109    2.648259807351e-10
   110    2.712286683922e-09
   111    6.653910158907e-09
   112   -8.375921862699e-03
   113   -1.132882393792e-14
   114   -2.293048948303e-12
   115   -4.120173566817e-06
   116   -3.136040570212e-05
   117   -1.648599875297e-04
   118   -5.422525730638e-04
   119   -1.245445723210e-03
   120   -1.397312440503e-04
   121   -3.891544442999e-03
   122    1.410446668785e-01
   123    2.202400147224e-12
   124    3.315181587218e-02
   125    5.985499608392e-03
   126    2.185379060942e-01
   127   -3.588590799073e-12
   128    4.922423285479e-02
   129    3.170627645618e-03
   130    1.534914258567e-01
   131    7.696341356048e-13
   132    8.348973994956e-03
   133   -5.491347074090e-02
   134   -6.912965241286e-03
   135   -3.511237489883e-13
   136   -9.825512418029e-02
   137   -6.908454591312e-03
   138    2.673786426883e-02
   139    5.418261534361e-12
   140   -2.068054757227e-03
   141   -1.661524706775e-03
   142   -1.963632163188e-02
   143    5.008013399881e-13
   144    2.368241764608e-03
   145    1.196948752100e-13
   146    9.591295511651e-02
   147    1.488472730998e-01
   148    2.687304391629e-02
   149   -2.482210361033e-02
   150   -7.934940785045e-03
   151    3.165883683982e-13
   152    9.987410798978e-03
   153    1.707249152799e-05
   154    1.292031188688e-04
   155    6.802919495767e-04
   156    2.229091533264e-03
   157    5.586678867574e-03
   158    3.036340094053e-03
   159    1.295709697817e-02
   160    1.502992366486e-02
   161    2.312501212031e-12
   162   -4.088228718862e-02
   163   -3.382081609031e-02
   164    2.577399509983e-02
   165   -3.503991706142e-12
   166   -6.584499210871e-02
   167   -1.428697580122e-02
   168   -1.771737152520e-02
   169    1.711299156192e-12
   170   -3.657796551034e-02
   171   -1.888674684137e-01
   172    3.580772524697e-02
   173   -1.255690666047e-12
   174   -1.328886523111e-01
   175    2.407891234133e-03
   176   -2.240490052470e-02
   177   -2.122779182736e-12
   178   -8.172684889142e-03
   179    3.933046150129e-03
   180   -1.139838007631e-02
   181   -4.490355189864e-13
   182   -4.502734760245e-03
   183    1.050826364597e-13
   184   -2.040220798524e-02
   185   -3.265429107195e-02
   186   -4.048829024485e-03
   187    4.320138487222e-02
   188    1.690407468324e-03
   189    3.676589655889e-13
   190   -6.779622899742e-04
   191    1.106977506015e-13
   192    8.341432302604e-13
   193    4.463311573051e-12
   194    1.438564473981e-11
   195    3.798451856185e-11
   196    2.872523879795e-11
   197    8.669685730509e-11
   198   -6.075425639691e-02
   199   -3.976290952788e-14
   200   -4.031008436657e-12
   201   -3.262058186969e-10
   202   -6.936434919785e-02
   203    3.578514498177e-14
   204    6.407488344846e-12
   205    1.132046259077e-09
   206   -1.583589784733e-02
   207   -3.625637648740e-13
   208   -3.113340489893e-10
   209    1.261079583975e-08
   210    2.528464059558e-01
   211    5.821806766321e-13
   212   -8.296895755073e-09
   213    1.847087628200e-09
   214    1.598540022521e-02
   215   -9.746318400969e-13
   216   -6.319560775201e-10
   217    3.424549935208e-13
   218    3.705627451439e-03
   219    2.014057029074e-13
   220    8.617745223845e-12
   221    9.377273355118e-13
   222   -3.917823787215e-12
   223   -1.270493738409e-11
   224    3.374811806341e-11
   225    4.122746065603e-11
   226   -7.878771140089e-11
   227   -1.114158137715e-10
   228    2.219685169022e-10
   229    2.427681511885e-10
   230   -5.732340391524e-04
   231    1.401071910770e-13
   232    5.230709469476e-12
   233   -4.774753462960e-03
   234    8.096575495126e-13
   235    4.356902822503e-11
   236    1.216373525229e-02
   237    4.417688038315e-12
   238   -1.154507502600e-10
   239    5.445718031688e-03
   240    1.105941432050e-12
   241   -3.864968596595e-11
   242   -1.040556436149e-02
   243    7.099045838796e-13
   244    6.923384391267e-11
   245   -2.200830592924e-02
   246    1.412988984739e-12
   247    2.705020599284e-10
   248   -1.206200880398e-02
   249    9.652732165859e-13
   250   -1.352670587157e-12
   251    1.247235285306e-12
   252   -2.980233187392e-05
   253    1.166362723309e-12
   254    1.735320881023e-11
   255   -3.433492467214e-13
   256    2.238493192118e-12
   257    5.604803025925e-04
   258    4.222720252817e-13
   259    6.032509833256e-12
   260   -1.989404839242e-13
   261    3.423866445262e-09
   262   -1.448136718268e-02
   263    1.289192591646e-13
   264   -8.576239030534e-10
   265   -7.616050044837e-10
   266    6.064819348065e-03
   267    1.341317412724e-12
   268    3.364082154478e-10
   269    3.180746997179e-11
   270    3.723493112911e-03
   271   -4.185551940021e-13
   272   -7.442925824963e-11
   273   -1.284243148796e-13
Sym=X
Ene= 2.000158
Spin=Alpha
Occup=1
     1    1.430973964724e-02
     2    2.089436374276e-02
     3   -4.485167289078e-03
     4   -2.517950888671e-02
     5    2.028559423005e-03
     6   -2.168132606460e-14
     7   -1.145104811328e-03
     8   -3.589422314034e-05
     9   -2.740520218676e-04
    10   -1.413533626314e-03
    11   -4.715533378026e-03
    12   -1.155341737426e-02
    13   -5.456835622339e-03
    14   -2.263327388136e-02
    15   -3.774945272807e-03
    16   -1.337840893463e-13
    17    2.892664080879e-03
    18    4.505533351967e-02
    19   -3.718644154819e-03
    20   -2.173011431960e-13
    21    5.556939527586e-03
    22    1.701354397682e-02
    23   -1.217827512439e-02
    24   -3.337248251257e-13
    25    1.182189194835e-02
    26   -3.830499320436e-02
    27   -2.185531638011e-02
    28    1.375979532909e-14
    29    3.375331762637e-02
    30    3.915393862580e-03
    31    4.010410389731e-04
    32    2.850075066217e-12
    33   -1.802991122446e-03
    34    6.842429227943e-04
    35   -1.901346707107e-03
    36   -6.157687858473e-14
    37    1.986244808301e-03
    38   -2.411425118318e-14
    39    2.109734454646e-06
    40    1.612705166204e-05
    41    8.485964573202e-05
    42    2.788707318470e-04
    43    5.827970256528e-04
    44   -2.872681451638e-04
    45    2.466902730710e-03
    46    2.115184192414e-02
    47    2.584918320234e-13
    48    9.714638765946e-03
    49   -5.725819247141e-03
    50    3.352612479003e-02
    51    4.611942041556e-13
    52    1.589281965325e-02
    53   -7.814743899434e-03
    54    1.644345770144e-02
    55    3.353551959797e-13
    56    9.090334249804e-03
    57   -2.369802942321e-02
    58   -2.084503230448e-02
    59   -7.875306946990e-14
    60   -3.236294532684e-03
    61    4.890006254639e-03
    62   -1.442915154831e-03
    63   -5.142067228161e-12
    64    6.885075344837e-03
    65    7.496620949203e-04
    66   -2.489053670911e-03
    67   -4.085986899212e-14
    68    5.398810621950e-05
    69    8.947990270271e-14
    70   -2.021542220165e-02
    71   -3.098284892291e-02
    72   -7.073965185757e-03
    73   -1.174699363868e-02
    74   -2.523349518174e-03
    75    1.160337166610e-14
    76   -1.711421425390e-03
    77   -1.274036921136e-05
    78   -9.636706938119e-05
    79   -5.080772535399e-04
    80   -1.662767235954e-03
    81   -4.171939319371e-03
    82   -2.216698328962e-03
    83   -9.795488418416e-03
    84    8.951148735764e-11
    85    5.925373302396e-13
    86    1.433576201004e-02
    87    2.675121109511e-02
    88    1.336059473744e-10
    89    1.055182155972e-12
    90    2.251376578338e-02
    91    1.545838397486e-02
    92    1.596399195751e-10
    93    7.684965557939e-13
    94    9.613220216486e-03
    95    8.873609899071e-02
    96    6.453977038216e-09
    97    1.191135019069e-13
    98    1.966194418467e-02
    99    1.690475481718e-02
   100   -8.838637079396e-10
   101    5.525653843962e-12
   102   -2.728041089461e-03
   103    2.186989733352e-03
   104    8.185014990860e-12
   105    8.825633706056e-14
   106   -1.727464375681e-04
   107    4.157252082407e-14
   108   -4.958357086290e-03
   109   -7.846802892467e-03
   110   -2.531793966528e-03
   111    2.560468465010e-03
   112   -1.795244988622e-12
   113    4.299797328242e-14
   114   -9.326282175318e-04
   115    2.109734578576e-06
   116    1.612705262690e-05
   117    8.485965053078e-05
   118    2.788707483872e-04
   119    5.827970640495e-04
   120   -2.872681339414e-04
   121    2.466902784725e-03
   122   -2.115184202833e-02
   123    6.355839131667e-13
   124    9.714638625834e-03
   125   -5.725819236836e-03
   126   -3.352612494598e-02
   127    1.123620571439e-12
   128    1.589281938393e-02
   129   -7.814743832480e-03
   130   -1.644345813747e-02
   131    9.081133611774e-13
   132    9.090334774855e-03
   133   -2.369803640153e-02
   134    2.084504222047e-02
   135    4.609645992157e-14
   136   -3.236285509186e-03
   137    4.890007059683e-03
   138    1.442917529124e-03
   139   -5.213049768069e-12
   140    6.885076028742e-03
   141    7.496620805027e-04
   142    2.489053681027e-03
   143    1.218959303288e-14
   144    5.398811651453e-05
   145   -8.732717530112e-14
   146   -2.021542219517e-02
   147   -3.098284885181e-02
   148   -7.073964330925e-03
   149   -1.174699496979e-02
   150    2.523349510528e-03
   151    5.422888360514e-14
   152   -1.711421442673e-03