[Molden Format]
[Atoms] (Angs)
  H      1    1     -2.14344049      0.00000000     -0.22359064
  C      2    6     -1.21326725     -0.00000000     -0.77278636
  C      3    6     -1.20502948     -0.00000000     -2.16587022
  H      4    1     -2.14438543     -0.00000000     -2.70149179
  C      5    6      0.00000000     -0.00000000     -2.86507761
  H      6    1      0.00000000     -0.00000000     -3.94588772
  C      7    6      1.20502948     -0.00000000     -2.16587022
  H      8    1      2.14438543     -0.00000000     -2.70149179
  C      9    6      1.21326725     -0.00000000     -0.77278636
  H     10    1      2.14344049     -0.00000000     -0.22359064
  C     11    6     -0.00000000     -0.00000000     -0.08999076
 Br     12   35     -0.00000000      0.00000000      1.79400976
[GTO]
1    0
S    3    1.000000
   3.38650000E+01    2.54938000E-02 
   5.09479000E+00    1.90373000E-01 
   1.15879000E+00    8.52161000E-01 
S    1    1.000000
   3.25840000E-01    1.00000000E+00 
S    1    1.000000
   1.02741000E-01    1.00000000E+00 
S    1    1.000000
   3.60000000E-02    1.00000000E+00 
P    1    1.000000
   7.50000000E-01    1.00000000E+00 

2    0
S    1    1.000000
   4.56324000E+03    1.96665000E-03 
S    1    1.000000
   6.82024000E+02    1.52306000E-02 
S    1    1.000000
   1.54973000E+02    7.61269000E-02 
S    1    1.000000
   4.44553000E+01    2.60801000E-01 
S    1    1.000000
   1.30290000E+01    6.16462000E-01 
S    1    1.000000
   1.82773000E+00    2.21006000E-01 
SP   3    1.000000
   2.09642000E+01    1.14660000E-01   4.02487000E-02 
   4.80331000E+00    9.19999000E-01   2.37594000E-01 
   1.45933000E+00   -3.03068000E-03   8.15854000E-01 
SP   1    1.000000
   4.83456000E-01    1.00000000E+00   1.00000000E+00 
SP   1    1.000000
   1.45585000E-01    1.00000000E+00   1.00000000E+00 
SP   1    1.000000
   4.38000000E-02    1.00000000E+00   1.00000000E+00 
SP   1    1.000000
   1.31927711E-02    1.00000000E+00   1.00000000E+00 
D    1    1.000000
   6.26000000E-01    1.00000000E+00 

3    0
S    1    1.000000
   4.56324000E+03    1.96665000E-03 
S    1    1.000000
   6.82024000E+02    1.52306000E-02 
S    1    1.000000
   1.54973000E+02    7.61269000E-02 
S    1    1.000000
   4.44553000E+01    2.60801000E-01 
S    1    1.000000
   1.30290000E+01    6.16462000E-01 
S    1    1.000000
   1.82773000E+00    2.21006000E-01 
SP   3    1.000000
   2.09642000E+01    1.14660000E-01   4.02487000E-02 
   4.80331000E+00    9.19999000E-01   2.37594000E-01 
   1.45933000E+00   -3.03068000E-03   8.15854000E-01 
SP   1    1.000000
   4.83456000E-01    1.00000000E+00   1.00000000E+00 
SP   1    1.000000
   1.45585000E-01    1.00000000E+00   1.00000000E+00 
SP   1    1.000000
   4.38000000E-02    1.00000000E+00   1.00000000E+00 
SP   1    1.000000
   1.31927711E-02    1.00000000E+00   1.00000000E+00 
D    1    1.000000
   6.26000000E-01    1.00000000E+00 

4    0
S    3    1.000000
   3.38650000E+01    2.54938000E-02 
   5.09479000E+00    1.90373000E-01 
   1.15879000E+00    8.52161000E-01 
S    1    1.000000
   3.25840000E-01    1.00000000E+00 
S    1    1.000000
   1.02741000E-01    1.00000000E+00 
S    1    1.000000
   3.60000000E-02    1.00000000E+00 
P    1    1.000000
   7.50000000E-01    1.00000000E+00 

5    0
S    1    1.000000
   4.56324000E+03    1.96665000E-03 
S    1    1.000000
   6.82024000E+02    1.52306000E-02 
S    1    1.000000
   1.54973000E+02    7.61269000E-02 
S    1    1.000000
   4.44553000E+01    2.60801000E-01 
S    1    1.000000
   1.30290000E+01    6.16462000E-01 
S    1    1.000000
   1.82773000E+00    2.21006000E-01 
SP   3    1.000000
   2.09642000E+01    1.14660000E-01   4.02487000E-02 
   4.80331000E+00    9.19999000E-01   2.37594000E-01 
   1.45933000E+00   -3.03068000E-03   8.15854000E-01 
SP   1    1.000000
   4.83456000E-01    1.00000000E+00   1.00000000E+00 
SP   1    1.000000
   1.45585000E-01    1.00000000E+00   1.00000000E+00 
SP   1    1.000000
   4.38000000E-02    1.00000000E+00   1.00000000E+00 
SP   1    1.000000
   1.31927711E-02    1.00000000E+00   1.00000000E+00 
D    1    1.000000
   6.26000000E-01    1.00000000E+00 

6    0
S    3    1.000000
   3.38650000E+01    2.54938000E-02 
   5.09479000E+00    1.90373000E-01 
   1.15879000E+00    8.52161000E-01 
S    1    1.000000
   3.25840000E-01    1.00000000E+00 
S    1    1.000000
   1.02741000E-01    1.00000000E+00 
S    1    1.000000
   3.60000000E-02    1.00000000E+00 
P    1    1.000000
   7.50000000E-01    1.00000000E+00 

7    0
S    1    1.000000
   4.56324000E+03    1.96665000E-03 
S    1    1.000000
   6.82024000E+02    1.52306000E-02 
S    1    1.000000
   1.54973000E+02    7.61269000E-02 
S    1    1.000000
   4.44553000E+01    2.60801000E-01 
S    1    1.000000
   1.30290000E+01    6.16462000E-01 
S    1    1.000000
   1.82773000E+00    2.21006000E-01 
SP   3    1.000000
   2.09642000E+01    1.14660000E-01   4.02487000E-02 
   4.80331000E+00    9.19999000E-01   2.37594000E-01 
   1.45933000E+00   -3.03068000E-03   8.15854000E-01 
SP   1    1.000000
   4.83456000E-01    1.00000000E+00   1.00000000E+00 
SP   1    1.000000
   1.45585000E-01    1.00000000E+00   1.00000000E+00 
SP   1    1.000000
   4.38000000E-02    1.00000000E+00   1.00000000E+00 
SP   1    1.000000
   1.31927711E-02    1.00000000E+00   1.00000000E+00 
D    1    1.000000
   6.26000000E-01    1.00000000E+00 

8    0
S    3    1.000000
   3.38650000E+01    2.54938000E-02 
   5.09479000E+00    1.90373000E-01 
   1.15879000E+00    8.52161000E-01 
S    1    1.000000
   3.25840000E-01    1.00000000E+00 
S    1    1.000000
   1.02741000E-01    1.00000000E+00 
S    1    1.000000
   3.60000000E-02    1.00000000E+00 
P    1    1.000000
   7.50000000E-01    1.00000000E+00 

9    0
S    1    1.000000
   4.56324000E+03    1.96665000E-03 
S    1    1.000000
   6.82024000E+02    1.52306000E-02 
S    1    1.000000
   1.54973000E+02    7.61269000E-02 
S    1    1.000000
   4.44553000E+01    2.60801000E-01 
S    1    1.000000
   1.30290000E+01    6.16462000E-01 
S    1    1.000000
   1.82773000E+00    2.21006000E-01 
SP   3    1.000000
   2.09642000E+01    1.14660000E-01   4.02487000E-02 
   4.80331000E+00    9.19999000E-01   2.37594000E-01 
   1.45933000E+00   -3.03068000E-03   8.15854000E-01 
SP   1    1.000000
   4.83456000E-01    1.00000000E+00   1.00000000E+00 
SP   1    1.000000
   1.45585000E-01    1.00000000E+00   1.00000000E+00 
SP   1    1.000000
   4.38000000E-02    1.00000000E+00   1.00000000E+00 
SP   1    1.000000
   1.31927711E-02    1.00000000E+00   1.00000000E+00 
D    1    1.000000
   6.26000000E-01    1.00000000E+00 

10    0
S    3    1.000000
   3.38650000E+01    2.54938000E-02 
   5.09479000E+00    1.90373000E-01 
   1.15879000E+00    8.52161000E-01 
S    1    1.000000
   3.25840000E-01    1.00000000E+00 
S    1    1.000000
   1.02741000E-01    1.00000000E+00 
S    1    1.000000
   3.60000000E-02    1.00000000E+00 
P    1    1.000000
   7.50000000E-01    1.00000000E+00 

11    0
S    1    1.000000
   4.56324000E+03    1.96665000E-03 
S    1    1.000000
   6.82024000E+02    1.52306000E-02 
S    1    1.000000
   1.54973000E+02    7.61269000E-02 
S    1    1.000000
   4.44553000E+01    2.60801000E-01 
S    1    1.000000
   1.30290000E+01    6.16462000E-01 
S    1    1.000000
   1.82773000E+00    2.21006000E-01 
SP   3    1.000000
   2.09642000E+01    1.14660000E-01   4.02487000E-02 
   4.80331000E+00    9.19999000E-01   2.37594000E-01 
   1.45933000E+00   -3.03068000E-03   8.15854000E-01 
SP   1    1.000000
   4.83456000E-01    1.00000000E+00   1.00000000E+00 
SP   1    1.000000
   1.45585000E-01    1.00000000E+00   1.00000000E+00 
SP   1    1.000000
   4.38000000E-02    1.00000000E+00   1.00000000E+00 
SP   1    1.000000
   1.31927711E-02    1.00000000E+00   1.00000000E+00 
D    1    1.000000
   6.26000000E-01    1.00000000E+00 

12    0
S    6    1.000000
   4.39700000E+05    8.13000000E-04 
   6.60300000E+04    6.28500000E-03 
   1.51400000E+04    3.19200000E-02 
   4.31700000E+03    1.28800000E-01 
   1.41400000E+03    3.94600000E-01 
   5.23900000E+02    5.41300000E-01 
S    3    1.000000
   5.23900000E+02    1.83100000E-01 
   2.07700000E+02    6.17600000E-01 
   8.65400000E+01    2.53800000E-01 
S    1    1.000000
   3.05200000E+01    1.00000000E+00 
S    1    1.000000
   1.29800000E+01    1.00000000E+00 
S    1    1.000000
   4.41200000E+00    1.00000000E+00 
S    1    1.000000
   1.86200000E+00    1.00000000E+00 
S    1    1.000000
   3.93200000E-01    1.00000000E+00 
S    1    1.000000
   1.40000000E-01    1.00000000E+00 
P    3    1.000000
   2.95700000E+03    2.22600000E-02 
   7.00300000E+02    1.80200000E-01 
   2.24600000E+02    8.62400000E-01 
P    3    1.000000
   8.25900000E+01    3.44000000E-01 
   3.31900000E+01    5.07100000E-01 
   1.42000000E+01    2.59000000E-01 
P    3    1.000000
   1.42000000E+01    7.96500000E-02 
   7.43800000E+00    3.73400000E-01 
   3.52600000E+00    6.04900000E-01 
P    1    1.000000
   1.59500000E+00    1.00000000E+00 
P    1    1.000000
   8.46200000E-01    1.00000000E+00 
P    1    1.000000
   3.18600000E-01    1.00000000E+00 
P    1    1.000000
   1.09600000E-01    1.00000000E+00 
D    4    1.000000
   1.34800000E+02    1.83100000E-02 
   3.63900000E+01    1.35000000E-01 
   1.21600000E+01    4.26100000E-01 
   4.34100000E+00    6.04300000E-01 
D    1    1.000000
   1.53500000E+00    1.00000000E+00 
SP   1    1.000000
   3.90000000E-02    1.00000000E+00   1.00000000E+00 
SP   1    1.000000
   1.17469880E-02    1.00000000E+00   1.00000000E+00 
D    1    1.000000
   4.15000000E-01    1.00000000E+00 

[MO]
Sym=X
Ene= 2.001061
Spin=Alpha
Occup=1
     1    1.035826711413e-13
     2    1.311923488159e-12
     3   -5.176669273917e-12
     4   -4.722220356539e-12
     5    5.450463125523e-14
     6   -8.743037848191e-04
     7   -7.017831717683e-15
     8   -1.884027352612e-15
     9   -1.214019250668e-14
    10   -6.510372141182e-14
    11   -2.212463950812e-13
    12   -5.281070756944e-13
    13   -1.551816654020e-13
    14   -7.250705920335e-13
    15    3.010284455160e-13
    16   -1.827992686566e-02
    17    1.678689823887e-13
    18    1.315685457640e-13
    19    7.150968687498e-13
    20   -3.174487320868e-02
    21    3.727996196576e-13
    22   -1.797720584142e-12
    23   -1.981410061162e-12
    24   -1.081554166606e-02
    25   -1.062136604351e-12
    26    3.531732569056e-11
    27    4.266111801868e-12
    28    1.810574497812e-02
    29    2.230469604717e-11
    30   -5.139799495707e-12
    31   -4.716855218912e-11
    32   -7.418370964646e-03
    33    3.599872125401e-11
    34   -1.018145130351e-13
    35   -7.024380244651e-14
    36    1.917484761929e-02
    37   -1.544191736084e-14
    38    3.328172216500e-03
    39    1.892924248237e-15
    40    1.546142982866e-14
    41    7.299098781707e-14
    42    2.623061786309e-13
    43    6.040016276361e-13
    44    3.779155265781e-13
    45    7.758265796065e-13
    46   -6.322805396695e-14
    47   -1.114442065213e-01
    48   -9.347672913791e-14
    49   -6.725036220316e-13
    50   -1.507372689331e-13
    51   -1.926089093925e-01
    52   -3.004382547705e-13
    53    6.070529203208e-13
    54    4.339418108139e-13
    55   -1.608408969479e-01
    56    5.381529122081e-13
    57    2.184312448175e-11
    58    5.177226935726e-12
    59   -1.513330778975e-02
    60    1.069651517099e-11
    61   -5.410835926444e-12
    62    2.891157723225e-11
    63    4.362774215545e-03
    64   -3.186204870235e-11
    65    4.861752219279e-14
    66    9.270608816075e-14
    67    5.421664526434e-03
    68    7.621710672364e-15
    69   -2.218695083245e-02
    70   -8.001858365963e-14
    71   -1.209172648100e-12
    72    3.089164639616e-12
    73    1.143239366455e-11
    74   -1.601630630098e-14
    75   -8.482724341495e-03
    76   -3.587875849538e-14
    77   -3.955742874269e-16
    78   -2.876143294058e-15
    79   -1.088545495915e-14
    80   -4.623562973792e-14
    81   -1.259652509229e-13
    82   -1.482055341000e-13
    83   -6.177787749185e-14
    84    2.685386310926e-13
    85   -1.560433255773e-01
    86   -3.194643795273e-13
    87   -7.093343976880e-14
    88    1.062401703436e-12
    89   -2.691957778953e-01
    90   -4.729283742263e-13
    91    1.921977100724e-13
    92   -2.146581948205e-12
    93   -2.355090711892e-01
    94   -8.684809193524e-13
    95    3.180854888193e-12
    96    4.261401795090e-13
    97   -1.728831114200e-02
    98   -6.385875689916e-12
    99   -1.693952391824e-12
   100   -1.817312313290e-11
   101   -5.910076652216e-03
   102    1.238341924846e-11
   103   -2.751282569017e-14
   104   -6.312799491532e-14
   105   -2.090124653034e-02
   106   -8.489193460119e-15
   107    3.300653151996e-13
   108    2.825065539879e-13
   109    5.893475655778e-13
   110   -1.774851451578e-12
   111   -7.700601708243e-12
   112   -3.173636157798e-14
   113   -1.217380939356e-02
   114    1.300250178293e-13
   115   -1.168922869601e-15
   116   -8.731186409746e-15
   117   -4.479373559928e-14
   118   -1.442103881136e-13
   119   -3.886855842001e-13
   120   -2.003102323968e-13
   121   -3.158957868313e-13
   122    7.937886960214e-14
   123   -1.114442065189e-01
   124   -1.303113768605e-13
   125    1.693395451788e-13
   126   -1.026916382674e-13
   127   -1.926089093890e-01
   128   -2.608057347043e-13
   129   -2.193067510301e-12
   130    1.364776099472e-13
   131   -1.608408969340e-01
   132   -1.233313912754e-12
   133   -1.523991478551e-11
   134    5.057030841791e-12
   135   -1.513330785327e-02
   136   -4.744428556152e-12
   137    4.560046474762e-12
   138    2.249759486075e-11
   139    4.362774052393e-03
   140    1.043983366671e-11
   141    1.110419879024e-13
   142    1.847969734059e-13
   143    5.421664526331e-03
   144    8.491723823562e-14
   145    2.218695083237e-02
   146    5.452473210544e-14
   147    1.327911869531e-12
   148   -2.579943636459e-12
   149   -9.197663376476e-12
   150   -2.062552177257e-14
   151   -8.482724341448e-03
   152    2.851180363819e-14
   153    1.344319187929e-15
   154    1.143191209741e-14
   155    5.693498722908e-14
   156    1.964953285757e-13
   157    4.563749855149e-13
   158    1.846956337434e-13
   159    6.053823117727e-13
   160    2.555759824197e-13
   161   -1.827992686778e-02
   162    1.421652094648e-13
   163   -1.323479220707e-13
   164    9.865874902149e-13
   165   -3.174487321111e-02
   166    1.843794714413e-13
   167    4.430355183747e-12
   168   -2.345408571165e-12
   169   -1.081554168004e-02
   170    2.628456388984e-13
   171   -3.908608442106e-11
   172   -2.229582303772e-12
   173    1.810574504163e-02
   174   -2.307683873009e-11
   175    3.000245299678e-12
   176   -4.201968562363e-11
   177   -7.418370797028e-03
   178   -1.913175403445e-11
   179   -9.057858402326e-14
   180    5.910523098703e-14
   181    1.917484761896e-02
   182   -3.207945372823e-14
   183   -3.328172216315e-03
   184    2.351910221809e-13
   185   -1.400348906630e-12
   186    6.322787125911e-12
   187    1.277274480606e-11
   188   -9.170291271157e-16
   189   -8.743037848276e-04
   190    3.433654576250e-14
   191   -3.073773061682e-16
   192    4.872063148059e-16
   193   -1.003441663292e-15
   194    5.936627019919e-15
   195    1.654711216196e-14
   196    6.852972248530e-14
   197   -1.267577511859e-14
   198   -2.757338573557e-13
   199    7.936070806876e-02
   200   -1.257405642313e-13
   201   -9.068604775149e-14
   202   -3.512968878152e-13
   203    9.065305289218e-02
   204   -3.607546033891e-13
   205   -6.415909319921e-13
   206   -3.141478178923e-12
   207    9.377079208805e-02
   208   -5.143477135282e-13
   209   -6.080797564465e-12
   210    3.677683239631e-11
   211    1.260178480326e-03
   212    3.702897988957e-12
   213   -3.872785260034e-12
   214    4.250174982116e-11
   215    3.677093003766e-03
   216   -1.287932067223e-11
   217   -9.883076288660e-14
   218    1.029555682914e-13
   219    4.357440557967e-03
   220    1.347011303311e-13
   221   -1.760609924889e-13
   222   -4.518162185784e-13
   223   -9.222472763944e-13
   224    7.008568982297e-13
   225    7.147348620957e-13
   226   -9.305300833349e-13
   227   -9.885265547523e-13
   228    7.984176841989e-13
   229    9.689066569757e-13
   230   -2.340479260878e-13
   231    1.022355054924e-03
   232    2.392225896471e-14
   233   -1.720178353331e-12
   234    8.513317230408e-03
   235    2.424768004676e-13
   236   -1.003344838296e-13
   237   -2.165815017772e-02
   238   -1.350971623146e-12
   239   -1.128211918399e-14
   240   -9.534674161137e-03
   241   -4.488907128964e-13
   242    2.606614431265e-13
   243    1.869892534337e-02
   244    3.085555550021e-13
   245    1.078777273752e-12
   246    4.303359547604e-02
   247    5.872638027220e-13
   248   -1.314910113865e-13
   249    1.356850030132e-02
   250    6.597205528978e-13
   251   -5.402617070809e-13
   252   -4.009581726177e-13
   253    6.082071098997e-03
   254   -7.319107172137e-14
   255    3.613211620738e-13
   256   -2.904089976674e-13
   257   -1.208973019179e-13
   258    9.870921661474e-04
   259   -1.616964998880e-14
   260    1.609062161075e-13
   261   -1.979345266574e-12
   262   -1.231348538561e-12
   263   -7.119264990394e-03
   264    4.177242650767e-13
   265    7.164099933073e-12
   266    8.353037402112e-12
   267    4.154173268266e-03
   268    1.048972050209e-13
   269   -2.936111814297e-13
   270    1.812860638521e-13
   271   -1.061487870108e-02
   272    4.011294817835e-14
   273    3.842553986636e-13
Sym=X
Ene= 2.000408
Spin=Alpha
Occup=1
     1    1.647082562252e-02
     2    2.602285184888e-02
     3    4.033149344646e-03
     4   -4.175019387604e-02
     5    9.316491395918e-04
     6   -3.272599873491e-13
     7    4.313376426220e-04
     8   -2.285217096018e-05
     9   -1.731537753953e-04
    10   -9.103516705648e-04
    11   -2.987350246269e-03
    12   -7.406114525958e-03
    13   -3.536701885869e-03
    14   -1.765825641802e-02
    15    1.836047666121e-02
    16   -2.581492774033e-12
    17    3.086082631431e-02
    18    4.561876223491e-02
    19    2.997806737077e-02
    20    2.600387706712e-12
    21    5.006915645308e-02
    22    2.655243357776e-02
    23   -1.339735289839e-02
    24   -1.258371032177e-12
    25    2.515075554777e-02
    26    1.259616067936e-01
    27    1.850479695579e-02
    28    1.045252696777e-13
    29    1.081675983479e-01
    30   -1.480272663436e-03
    31   -2.191180003395e-02
    32   -1.510195503058e-12
    33    8.148567591314e-03
    34   -3.188673135258e-03
    35   -1.165163143270e-02
    36    4.967339323639e-13
    37    3.800544710566e-03
    38   -1.791296562730e-14
    39    5.881323664955e-06
    40    4.479942631222e-05
    41    2.339362401040e-04
    42    7.730345382407e-04
    43    1.815602602257e-03
    44    4.402242497767e-04
    45    4.890540033511e-03
    46    1.424390606602e-01
    47   -2.421757771998e-12
    48   -2.126260608428e-02
    49   -7.318186175203e-03
    50    2.197780871502e-01
    51    3.032976093126e-12
    52   -3.089020402901e-02
    53   -1.353722497786e-02
    54    1.552624499340e-01
    55   -1.862517626737e-12
    56   -1.336802608976e-03
    57    5.456344975945e-02
    58    3.399303452879e-03
    59    1.263248108824e-12
    60    8.820434367103e-02
    61    5.720058454383e-03
    62    2.616373972943e-02
    63    1.949213949003e-12
    64    1.126563561976e-03
    65    3.573726933527e-03
    66   -2.025751193084e-02
    67   -5.337171519482e-13
    68   -3.749479136554e-03
    69    5.026289496695e-14
    70   -1.032841979289e-01
    71   -1.608836547030e-01
    72   -3.219401423052e-02
    73    2.560851252805e-02
    74   -8.905949175087e-03
    75   -3.372237497063e-13
    76   -9.771235836770e-03
    77   -7.573963206886e-14
    78   -5.715346664548e-13
    79   -2.991953425379e-12
    80   -9.899173962509e-12
    81   -2.233056440798e-11
    82    3.055582639676e-12
    83   -6.877732118842e-11
    84   -1.423048728187e-01
    85    8.558055327700e-14
    86    3.902960157606e-11
    87    9.506842372151e-11
    88   -2.229742388788e-01
    89    1.586338440316e-13
    90    6.303645779777e-11
    91    7.992710878847e-10
    92   -1.081566507159e-01
    93    3.246548129057e-13
    94    8.865568839623e-10
    95    1.303616169609e-08
    96   -6.668635473353e-02
    97   -3.128930431223e-13
    98    9.009499975228e-10
    99    9.227663503094e-10
   100   -2.957339317176e-02
   101   -2.541177516570e-12
   102   -6.524046924902e-10
   103    3.365489792532e-11
   104   -2.759439413259e-02
   105   -3.151885081304e-15
   106   -1.212151503434e-11
   107    9.180809545446e-13
   108    4.169020377704e-11
   109    2.697816990715e-10
   110    1.679199867641e-10
   111   -1.719222091028e-09
   112   -8.171475467668e-03
   113    2.196240776173e-14
   114   -2.157838782001e-12
   115   -5.881323485514e-06
   116   -4.479942494835e-05
   117   -2.339362329422e-04
   118   -7.730345147258e-04
   119   -1.815602544451e-03
   120   -4.402242249774e-04
   121   -4.890539893225e-03
   122    1.424390604107e-01
   123    2.476570237632e-12
   124    2.126260625077e-02
   125    7.318185838505e-03
   126    2.197780867434e-01
   127   -2.822542301106e-12
   128    3.089020435063e-02
   129    1.353722384914e-02
   130    1.552624507957e-01
   131    1.272771065973e-12
   132    1.336802176936e-03
   133   -5.456345155475e-02
   134    3.399313196872e-03
   135   -2.425926218771e-13
   136   -8.820434464428e-02
   137   -5.720058972832e-03
   138    2.616374067485e-02
   139    2.731709566397e-12
   140   -1.126562576593e-03
   141   -3.573726930452e-03
   142   -2.025751187700e-02
   143    4.784556055402e-13
   144    3.749479123579e-03
   145    4.753227628202e-14
   146    1.032841975683e-01
   147    1.608836541449e-01
   148    3.219401170314e-02
   149   -2.560852015981e-02
   150   -8.905949133245e-03
   151    3.310312119370e-13
   152    9.771235810768e-03
   153    2.285217084686e-05
   154    1.731537745526e-04
   155    9.103516659306e-04
   156    2.987350231657e-03
   157    7.406114487848e-03
   158    3.536701861358e-03
   159    1.765825629851e-02
   160    1.836047687031e-02
   161    2.340400259220e-12
   162   -3.086082625473e-02
   163   -4.561876176742e-02
   164    2.997806769436e-02
   165   -3.153175130361e-12
   166   -5.006915638539e-02
   167   -2.655243275579e-02
   168   -1.339735284065e-02
   169    1.750267201101e-12
   170   -2.515075564686e-02
   171   -1.259616183199e-01
   172    1.850479562088e-02
   173   -1.261898715650e-12
   174   -1.081675950987e-01
   175    1.480271921967e-03
   176   -2.191180050355e-02
   177   -8.281059276973e-13
   178   -8.148568314152e-03
   179    3.188673144596e-03
   180   -1.165163135268e-02
   181   -4.921531313424e-13
   182   -3.800544693182e-03
   183    9.962016209231e-14
   184   -1.647082536956e-02
   185   -2.602285143847e-02
   186   -4.033149004254e-03
   187    4.175019512644e-02
   188    9.316491043766e-04
   189    3.590296655468e-13
   190   -4.313376682249e-04
   191    1.112324044099e-13
   192    8.425091769921e-13
   193    4.475132278566e-12
   194    1.453277450786e-11
   195    3.663861859175e-11
   196    1.873015525848e-11
   197    9.248345606628e-11
   198   -5.767939435043e-02
   199   -2.576774486110e-13
   200    3.889731441811e-12
   201   -2.826163810316e-10
   202   -6.749979599219e-02
   203   -2.260422803280e-13
   204    1.016750270369e-11
   205   -2.665109805579e-10
   206   -1.218290060788e-02
   207   -5.583341945795e-13
   208   -1.092535613225e-10
   209    1.830664387391e-09
   210    1.975312233775e-01
   211    4.899531894520e-13
   212   -8.019854573971e-09
   213    6.261205065021e-10
   214    1.488290353239e-02
   215   -2.962298568265e-13
   216   -2.721784279785e-10
   217   -1.250091075566e-11
   218    7.273777698915e-03
   219    1.520394914241e-13
   220    1.758725771557e-11
   221    9.145158163377e-13
   222   -3.348390143700e-12
   223   -1.117184335115e-11
   224    3.039253114294e-11
   225    3.819375697640e-11
   226   -7.404691422098e-11
   227   -9.442219059964e-11
   228    1.604594916664e-10
   229    4.985964968224e-10
   230   -2.864610579812e-04
   231    1.519510299657e-13
   232    5.532436861781e-12
   233   -2.369943092303e-03
   234    7.604028212901e-13
   235    4.614067860785e-11
   236    5.735280549219e-03
   237    7.173075267719e-12
   238   -1.215697318521e-10
   239    2.617326452340e-03
   240    1.909829646318e-12
   241   -4.107381373216e-11
   242   -4.896267347266e-03
   243    5.704136402169e-13
   244    7.415509317717e-11
   245   -1.013954533375e-02
   246    9.620154949955e-13
   247    2.958947188188e-10
   248   -5.273444632968e-03
   249    7.747469125438e-13
   250   -2.627823376441e-10
   251    7.070552469024e-13
   252   -2.020999005572e-03
   253    4.688222173726e-13
   254    2.895999268527e-12
   255   -3.075193475815e-13
   256   -5.086905513770e-13
   257   -3.225704241950e-04
   258    1.646855200427e-13
   259    2.016724384248e-12
   260   -1.832177073077e-13
   261    7.290107705761e-09
   262   -1.240271914625e-02
   263    9.905014889792e-14
   264   -2.111741340890e-09
   265    4.277894433575e-11
   266    6.001803447699e-03
   267    6.051773626665e-13
   268    2.615150502088e-10
   269    3.417896076796e-11
   270    2.597012297516e-03
   271   -3.549199040861e-13
   272   -2.013087985517e-11
   273   -1.139153086868e-13
Sym=X
Ene= 2.000130
Spin=Alpha
Occup=1
     1   -3.933988985635e-02
     2   -6.093955953176e-02
     3   -1.398195731954e-02
     4    2.162659679400e-03
     5   -3.929438657466e-03
     6   -3.730339412857e-15
     7    1.450344957134e-03
     8    6.328834195846e-05
     9    4.834652338278e-04
    10    2.493621191381e-03
    11    8.319748855053e-03
    12    2.018450505776e-02
    13    8.278502896579e-03
    14    4.136002938643e-02
    15    3.589065887776e-03
    16   -1.190281215869e-13
    17   -3.470542837786e-02
    18   -7.924133710170e-02
    19    6.255216360962e-03
    20   -2.151807278194e-13
    21   -5.399594156672e-02
    22   -7.682696379074e-02
    23    1.310604688534e-02
    24   -1.383036781689e-13
    25   -2.228090577159e-02
    26   -1.339872969121e-01
    27   -5.440462019785e-03
    28   -2.934348608524e-14
    29    3.617717377871e-02
    30   -2.330087049170e-02
    31   -1.656072635638e-03
    32   -8.845466661374e-13
    33   -1.220383460541e-02
    34    5.152610465230e-03
    35    1.336774905820e-02
    36    1.176331693559e-14
    37   -7.066800184157e-03
    38   -2.757795857871e-14
    39   -5.902524370738e-05
    40   -4.468036856149e-04
    41   -2.360211146151e-03
    42   -7.715445309184e-03
    43   -1.886406423063e-02
    44   -7.225551692150e-03
    45   -5.006302204533e-02
    46   -1.113190884768e-01
    47   -8.871475223787e-14
    48   -2.094726492764e-02
    49    1.300868249509e-01
    50   -1.729405753243e-01
    51   -1.613762522595e-13
    52   -3.079655069795e-02
    53    1.501463032115e-01
    54   -8.450846293239e-02
    55   -1.025668809715e-13
    56   -2.502732804901e-02
    57   -1.000591901985e-01
    58   -7.144905239656e-02
    59    2.333837262565e-14
    60   -5.596794910278e-03
    61   -2.224075697542e-02
    62   -3.814107578680e-03
    63    1.058833940361e-12
    64    9.625706445573e-03
    65    2.146238136997e-03
    66    1.723204337947e-02
    67   -2.518168847290e-14
    68    2.181670385141e-03
    69   -2.118102597800e-14
    70    1.158538313461e-01
    71    1.748695910245e-01
    72    2.249985399375e-02
    73   -1.899168541624e-02
    74    1.421340340874e-02
    75    6.709128937886e-16
    76    1.043050092533e-02
    77    8.208925620259e-05
    78    6.213964243006e-04
    79    3.277515970200e-03
    80    1.072722644577e-02
    81    2.651819922773e-02
    82    1.198785995591e-02
    83    6.648111118914e-02
    84   -2.710543005350e-10
    85   -3.690698864818e-14
    86   -3.613173153683e-02
    87   -1.773365787305e-01
    88   -4.250811007619e-10
    89   -7.708414072405e-14
    90   -5.451493790198e-02
    91   -1.516355108413e-01
    92    1.224723990036e-10
    93    1.400494455738e-14
    94   -3.791668793086e-02
    95    2.759049316471e-01
    96    3.862651659691e-10
    97   -3.790367403576e-14
    98    8.502614428901e-02
    99    9.684646363608e-03
   100    1.027820422236e-09
   101   -1.022517316639e-12
   102   -1.071991615048e-02
   103   -1.335799191513e-02
   104   -2.559260768135e-11
   105   -1.207594128667e-14
   106    1.719255856809e-03
   107    6.413603555334e-15
   108   -1.304947051116e-02
   109   -1.876228920703e-02
   110    5.371303437905e-04
   111    3.543014568635e-02
   112   -1.712575619089e-11
   113   -8.637857301875e-16
   114   -1.489580915443e-03
   115   -5.902524395465e-05
   116   -4.468036875183e-04
   117   -2.360211155698e-03
   118   -7.715445341811e-03
   119   -1.886406430928e-02
   120   -7.225551729030e-03
   121   -5.006302214711e-02
   122    1.113190887944e-01
   123   -5.597221787449e-14
   124   -2.094726449406e-02
   125    1.300868250088e-01
   126    1.729405758087e-01
   127   -1.096445667988e-13
   128   -3.079654998329e-02
   129    1.501463028634e-01
   130    8.450846389910e-02
   131   -2.932619302220e-14
   132   -2.502732808333e-02
   133   -1.000591624432e-01
   134    7.144906518740e-02
   135    2.747496138862e-14
   136   -5.596784955775e-03
   137   -2.224075551463e-02
   138    3.814105570332e-03
   139    1.107241132128e-12
   140    9.625706940713e-03
   141    2.146238180163e-03
   142   -1.723204340020e-02
   143   -1.185599672443e-14
   144    2.181670340187e-03
   145    6.446543119023e-15
   146    1.158538313049e-01
   147    1.748695910296e-01
   148    2.249985167555e-02
   149   -1.899168765544e-02
   150   -1.421340341581e-02
   151   -7.558043264747e-15
   152    1.043050095281e-02