[Molden Format]
[Atoms] (Angs)
  H      1    1     -2.14344049      0.00000000     -0.22359064
  C      2    6     -1.21326725     -0.00000000     -0.77278636
  C      3    6     -1.20502948     -0.00000000     -2.16587022
  H      4    1     -2.14438543     -0.00000000     -2.70149179
  C      5    6      0.00000000     -0.00000000     -2.86507761
  H      6    1      0.00000000     -0.00000000     -3.94588772
  C      7    6      1.20502948     -0.00000000     -2.16587022
  H      8    1      2.14438543     -0.00000000     -2.70149179
  C      9    6      1.21326725     -0.00000000     -0.77278636
  H     10    1      2.14344049     -0.00000000     -0.22359064
  C     11    6     -0.00000000     -0.00000000     -0.08999076
 Br     12   35     -0.00000000      0.00000000      1.79400976
[GTO]
1    0
S    3    1.000000
   3.38650000E+01    2.54938000E-02 
   5.09479000E+00    1.90373000E-01 
   1.15879000E+00    8.52161000E-01 
S    1    1.000000
   3.25840000E-01    1.00000000E+00 
S    1    1.000000
   1.02741000E-01    1.00000000E+00 
S    1    1.000000
   3.60000000E-02    1.00000000E+00 
P    1    1.000000
   7.50000000E-01    1.00000000E+00 

2    0
S    1    1.000000
   4.56324000E+03    1.96665000E-03 
S    1    1.000000
   6.82024000E+02    1.52306000E-02 
S    1    1.000000
   1.54973000E+02    7.61269000E-02 
S    1    1.000000
   4.44553000E+01    2.60801000E-01 
S    1    1.000000
   1.30290000E+01    6.16462000E-01 
S    1    1.000000
   1.82773000E+00    2.21006000E-01 
SP   3    1.000000
   2.09642000E+01    1.14660000E-01   4.02487000E-02 
   4.80331000E+00    9.19999000E-01   2.37594000E-01 
   1.45933000E+00   -3.03068000E-03   8.15854000E-01 
SP   1    1.000000
   4.83456000E-01    1.00000000E+00   1.00000000E+00 
SP   1    1.000000
   1.45585000E-01    1.00000000E+00   1.00000000E+00 
SP   1    1.000000
   4.38000000E-02    1.00000000E+00   1.00000000E+00 
SP   1    1.000000
   1.31927711E-02    1.00000000E+00   1.00000000E+00 
D    1    1.000000
   6.26000000E-01    1.00000000E+00 

3    0
S    1    1.000000
   4.56324000E+03    1.96665000E-03 
S    1    1.000000
   6.82024000E+02    1.52306000E-02 
S    1    1.000000
   1.54973000E+02    7.61269000E-02 
S    1    1.000000
   4.44553000E+01    2.60801000E-01 
S    1    1.000000
   1.30290000E+01    6.16462000E-01 
S    1    1.000000
   1.82773000E+00    2.21006000E-01 
SP   3    1.000000
   2.09642000E+01    1.14660000E-01   4.02487000E-02 
   4.80331000E+00    9.19999000E-01   2.37594000E-01 
   1.45933000E+00   -3.03068000E-03   8.15854000E-01 
SP   1    1.000000
   4.83456000E-01    1.00000000E+00   1.00000000E+00 
SP   1    1.000000
   1.45585000E-01    1.00000000E+00   1.00000000E+00 
SP   1    1.000000
   4.38000000E-02    1.00000000E+00   1.00000000E+00 
SP   1    1.000000
   1.31927711E-02    1.00000000E+00   1.00000000E+00 
D    1    1.000000
   6.26000000E-01    1.00000000E+00 

4    0
S    3    1.000000
   3.38650000E+01    2.54938000E-02 
   5.09479000E+00    1.90373000E-01 
   1.15879000E+00    8.52161000E-01 
S    1    1.000000
   3.25840000E-01    1.00000000E+00 
S    1    1.000000
   1.02741000E-01    1.00000000E+00 
S    1    1.000000
   3.60000000E-02    1.00000000E+00 
P    1    1.000000
   7.50000000E-01    1.00000000E+00 

5    0
S    1    1.000000
   4.56324000E+03    1.96665000E-03 
S    1    1.000000
   6.82024000E+02    1.52306000E-02 
S    1    1.000000
   1.54973000E+02    7.61269000E-02 
S    1    1.000000
   4.44553000E+01    2.60801000E-01 
S    1    1.000000
   1.30290000E+01    6.16462000E-01 
S    1    1.000000
   1.82773000E+00    2.21006000E-01 
SP   3    1.000000
   2.09642000E+01    1.14660000E-01   4.02487000E-02 
   4.80331000E+00    9.19999000E-01   2.37594000E-01 
   1.45933000E+00   -3.03068000E-03   8.15854000E-01 
SP   1    1.000000
   4.83456000E-01    1.00000000E+00   1.00000000E+00 
SP   1    1.000000
   1.45585000E-01    1.00000000E+00   1.00000000E+00 
SP   1    1.000000
   4.38000000E-02    1.00000000E+00   1.00000000E+00 
SP   1    1.000000
   1.31927711E-02    1.00000000E+00   1.00000000E+00 
D    1    1.000000
   6.26000000E-01    1.00000000E+00 

6    0
S    3    1.000000
   3.38650000E+01    2.54938000E-02 
   5.09479000E+00    1.90373000E-01 
   1.15879000E+00    8.52161000E-01 
S    1    1.000000
   3.25840000E-01    1.00000000E+00 
S    1    1.000000
   1.02741000E-01    1.00000000E+00 
S    1    1.000000
   3.60000000E-02    1.00000000E+00 
P    1    1.000000
   7.50000000E-01    1.00000000E+00 

7    0
S    1    1.000000
   4.56324000E+03    1.96665000E-03 
S    1    1.000000
   6.82024000E+02    1.52306000E-02 
S    1    1.000000
   1.54973000E+02    7.61269000E-02 
S    1    1.000000
   4.44553000E+01    2.60801000E-01 
S    1    1.000000
   1.30290000E+01    6.16462000E-01 
S    1    1.000000
   1.82773000E+00    2.21006000E-01 
SP   3    1.000000
   2.09642000E+01    1.14660000E-01   4.02487000E-02 
   4.80331000E+00    9.19999000E-01   2.37594000E-01 
   1.45933000E+00   -3.03068000E-03   8.15854000E-01 
SP   1    1.000000
   4.83456000E-01    1.00000000E+00   1.00000000E+00 
SP   1    1.000000
   1.45585000E-01    1.00000000E+00   1.00000000E+00 
SP   1    1.000000
   4.38000000E-02    1.00000000E+00   1.00000000E+00 
SP   1    1.000000
   1.31927711E-02    1.00000000E+00   1.00000000E+00 
D    1    1.000000
   6.26000000E-01    1.00000000E+00 

8    0
S    3    1.000000
   3.38650000E+01    2.54938000E-02 
   5.09479000E+00    1.90373000E-01 
   1.15879000E+00    8.52161000E-01 
S    1    1.000000
   3.25840000E-01    1.00000000E+00 
S    1    1.000000
   1.02741000E-01    1.00000000E+00 
S    1    1.000000
   3.60000000E-02    1.00000000E+00 
P    1    1.000000
   7.50000000E-01    1.00000000E+00 

9    0
S    1    1.000000
   4.56324000E+03    1.96665000E-03 
S    1    1.000000
   6.82024000E+02    1.52306000E-02 
S    1    1.000000
   1.54973000E+02    7.61269000E-02 
S    1    1.000000
   4.44553000E+01    2.60801000E-01 
S    1    1.000000
   1.30290000E+01    6.16462000E-01 
S    1    1.000000
   1.82773000E+00    2.21006000E-01 
SP   3    1.000000
   2.09642000E+01    1.14660000E-01   4.02487000E-02 
   4.80331000E+00    9.19999000E-01   2.37594000E-01 
   1.45933000E+00   -3.03068000E-03   8.15854000E-01 
SP   1    1.000000
   4.83456000E-01    1.00000000E+00   1.00000000E+00 
SP   1    1.000000
   1.45585000E-01    1.00000000E+00   1.00000000E+00 
SP   1    1.000000
   4.38000000E-02    1.00000000E+00   1.00000000E+00 
SP   1    1.000000
   1.31927711E-02    1.00000000E+00   1.00000000E+00 
D    1    1.000000
   6.26000000E-01    1.00000000E+00 

10    0
S    3    1.000000
   3.38650000E+01    2.54938000E-02 
   5.09479000E+00    1.90373000E-01 
   1.15879000E+00    8.52161000E-01 
S    1    1.000000
   3.25840000E-01    1.00000000E+00 
S    1    1.000000
   1.02741000E-01    1.00000000E+00 
S    1    1.000000
   3.60000000E-02    1.00000000E+00 
P    1    1.000000
   7.50000000E-01    1.00000000E+00 

11    0
S    1    1.000000
   4.56324000E+03    1.96665000E-03 
S    1    1.000000
   6.82024000E+02    1.52306000E-02 
S    1    1.000000
   1.54973000E+02    7.61269000E-02 
S    1    1.000000
   4.44553000E+01    2.60801000E-01 
S    1    1.000000
   1.30290000E+01    6.16462000E-01 
S    1    1.000000
   1.82773000E+00    2.21006000E-01 
SP   3    1.000000
   2.09642000E+01    1.14660000E-01   4.02487000E-02 
   4.80331000E+00    9.19999000E-01   2.37594000E-01 
   1.45933000E+00   -3.03068000E-03   8.15854000E-01 
SP   1    1.000000
   4.83456000E-01    1.00000000E+00   1.00000000E+00 
SP   1    1.000000
   1.45585000E-01    1.00000000E+00   1.00000000E+00 
SP   1    1.000000
   4.38000000E-02    1.00000000E+00   1.00000000E+00 
SP   1    1.000000
   1.31927711E-02    1.00000000E+00   1.00000000E+00 
D    1    1.000000
   6.26000000E-01    1.00000000E+00 

12    0
S    6    1.000000
   4.39700000E+05    8.13000000E-04 
   6.60300000E+04    6.28500000E-03 
   1.51400000E+04    3.19200000E-02 
   4.31700000E+03    1.28800000E-01 
   1.41400000E+03    3.94600000E-01 
   5.23900000E+02    5.41300000E-01 
S    3    1.000000
   5.23900000E+02    1.83100000E-01 
   2.07700000E+02    6.17600000E-01 
   8.65400000E+01    2.53800000E-01 
S    1    1.000000
   3.05200000E+01    1.00000000E+00 
S    1    1.000000
   1.29800000E+01    1.00000000E+00 
S    1    1.000000
   4.41200000E+00    1.00000000E+00 
S    1    1.000000
   1.86200000E+00    1.00000000E+00 
S    1    1.000000
   3.93200000E-01    1.00000000E+00 
S    1    1.000000
   1.40000000E-01    1.00000000E+00 
P    3    1.000000
   2.95700000E+03    2.22600000E-02 
   7.00300000E+02    1.80200000E-01 
   2.24600000E+02    8.62400000E-01 
P    3    1.000000
   8.25900000E+01    3.44000000E-01 
   3.31900000E+01    5.07100000E-01 
   1.42000000E+01    2.59000000E-01 
P    3    1.000000
   1.42000000E+01    7.96500000E-02 
   7.43800000E+00    3.73400000E-01 
   3.52600000E+00    6.04900000E-01 
P    1    1.000000
   1.59500000E+00    1.00000000E+00 
P    1    1.000000
   8.46200000E-01    1.00000000E+00 
P    1    1.000000
   3.18600000E-01    1.00000000E+00 
P    1    1.000000
   1.09600000E-01    1.00000000E+00 
D    4    1.000000
   1.34800000E+02    1.83100000E-02 
   3.63900000E+01    1.35000000E-01 
   1.21600000E+01    4.26100000E-01 
   4.34100000E+00    6.04300000E-01 
D    1    1.000000
   1.53500000E+00    1.00000000E+00 
SP   1    1.000000
   3.90000000E-02    1.00000000E+00   1.00000000E+00 
SP   1    1.000000
   1.17469880E-02    1.00000000E+00   1.00000000E+00 
D    1    1.000000
   4.15000000E-01    1.00000000E+00 

[MO]
Sym=X
Ene= 2.000238
Spin=Alpha
Occup=1
     1    5.888815008933e-03
     2    7.969778977395e-03
     3   -3.943034219991e-03
     4   -1.700621108359e-02
     5    6.024043476343e-04
     6   -1.493845004478e-14
     7   -7.195309355642e-05
     8   -1.977051848619e-05
     9   -1.511970637028e-04
    10   -7.766398547261e-04
    11   -2.600216978805e-03
    12   -6.356010223341e-03
    13   -3.058275817470e-03
    14   -1.185910783325e-02
    15    2.877127502639e-03
    16   -8.047712609199e-14
    17    3.532581099609e-03
    18    2.206627555079e-02
    19    5.834501938345e-03
    20   -1.265102659060e-13
    21    7.069534213210e-03
    22    1.165357618555e-03
    23   -9.701340450817e-03
    24   -1.519731126959e-13
    25    1.020782113945e-02
    26   -1.243907404530e-02
    27   -1.494391027233e-02
    28    5.766386161513e-14
    29    1.898534163337e-02
    30    2.946201441311e-03
    31   -1.173640224069e-03
    32    1.593011407990e-12
    33   -6.886852345794e-03
    34   -1.056591092658e-03
    35   -1.016439952180e-03
    36    1.339148185872e-14
    37    1.759128025526e-03
    38    5.184067277569e-17
    39    1.848489683698e-05
    40    1.401931543765e-04
    41    7.373636089679e-04
    42    2.420381512617e-03
    43    5.894453000899e-03
    44    2.204478437389e-03
    45    1.516422681587e-02
    46    2.005869242258e-02
    47   -1.323307342373e-13
    48    1.063816854228e-02
    49   -3.762187516255e-02
    50    3.109607451545e-02
    51   -2.162185068010e-13
    52    1.745033731189e-02
    53   -2.429786925604e-02
    54    1.806288510936e-02
    55   -2.054196505026e-13
    56    1.035714958323e-02
    57   -7.210180588312e-03
    58   -4.938269428734e-03
    59   -6.899764333999e-14
    60   -2.915830113428e-03
    61    4.559877846406e-03
    62    6.833358137436e-04
    63   -2.636142313963e-12
    64    6.919555350765e-03
    65    7.075860336320e-04
    66   -1.932012433475e-03
    67   -1.829014311346e-16
    68   -1.618723798049e-03
    69   -1.233578345525e-14
    70   -2.671666930061e-02
    71   -4.037115730611e-02
    72   -6.409126897127e-03
    73   -4.704406169502e-03
    74   -3.716100432985e-03
    75   -1.706589795377e-14
    76   -2.192183710880e-03
    77    4.971131491794e-07
    78    3.927503847791e-06
    79    1.909990244663e-05
    80    6.819022779916e-05
    81    1.367085636491e-04
    82   -1.186489341593e-04
    83    2.859284172471e-04
    84    9.156756120935e-11
    85   -1.320154949327e-13
    86    7.321465835329e-03
    87    1.293405605062e-03
    88    1.368069146127e-10
    89   -2.034796065781e-13
    90    1.111581817336e-02
    91    2.056653268572e-03
    92    1.287578500216e-11
    93   -2.802437320251e-13
    94    2.392373377707e-03
    95    2.692806039838e-02
    96    5.497592612911e-09
    97   -2.066959997962e-17
    98    5.183073110025e-03
    99    1.049864284529e-02
   100   -1.084607293227e-10
   101    2.823820839817e-12
   102   -3.375598310344e-03
   103    2.709599252821e-03
   104    9.651331375300e-12
   105   -1.720348410632e-14
   106   -1.826109757317e-03
   107    7.282362194975e-15
   108   -4.042252016839e-03
   109   -6.006198006033e-03
   110   -5.777745142290e-04
   111   -1.882542609090e-03
   112    1.737083688900e-12
   113   -1.266425146478e-14
   114   -1.281277698789e-03
   115    1.848489691799e-05
   116    1.401931550072e-04
   117    7.373636121104e-04
   118    2.420381523424e-03
   119    5.894453026631e-03
   120    2.204478448741e-03
   121    1.516422684783e-02
   122   -2.005869252813e-02
   123   -5.042638964211e-14
   124    1.063816840321e-02
   125   -3.762187516978e-02
   126   -3.109607467515e-02
   127   -6.837035983690e-14
   128    1.745033707238e-02
   129   -2.429786912803e-02
   130   -1.806288559860e-02
   131   -9.545799292957e-14
   132    1.035714976842e-02
   133   -7.210160874654e-03
   134    4.938274600761e-03
   135   -4.335948248126e-16
   136   -2.915815224341e-03
   137    4.559879601761e-03
   138   -6.833354928669e-04
   139   -2.707260683074e-12
   140    6.919556342135e-03
   141    7.075860155595e-04
   142    1.932012444422e-03
   143    4.254782151349e-15
   144   -1.618723787028e-03
   145    2.420553514553e-14
   146   -2.671666929854e-02
   147   -4.037115728741e-02
   148   -6.409125997053e-03
   149   -4.704403350140e-03
   150    3.716100431917e-03
   151    3.903839217556e-16
   152   -2.192183720052e-03
   153   -1.977051821983e-05
   154   -1.511970616429e-04
   155   -7.766398444442e-04
   156   -2.600216943501e-03
   157   -6.356010141210e-03
   158   -3.058275796091e-03
   159   -1.185910771198e-02
   160   -2.877127573985e-03
   161    1.844306159750e-14
   162    3.532581261019e-03
   163    2.206627557207e-02
   164   -5.834502066507e-03
   165    4.599961162901e-14
   166    7.069534459441e-03
   167    1.165356824233e-03
   168    9.701341039430e-03
   169    9.824042641809e-15
   170    1.020782127942e-02
   171   -1.243902889294e-02
   172    1.494389515190e-02
   173    2.247074127450e-14
   174    1.898537242078e-02
   175    2.946200653040e-03
   176    1.173640081685e-03
   177    1.673087339827e-12
   178   -6.886852263080e-03
   179   -1.056591098265e-03
   180    1.016439937400e-03
   181    1.525825396714e-14
   182    1.759128022326e-03
   183    9.066759824065e-15
   184    5.888814978129e-03
   185    7.969778953588e-03
   186   -3.943035622341e-03
   187   -1.700621404425e-02
   188   -6.024043604572e-04
   189    9.378426197763e-15
   190   -7.195308915964e-05
   191   -3.060062266997e-05
   192   -2.324191236903e-04
   193   -1.224308988967e-03
   194   -4.113088108482e-03
   195   -1.071232126918e-02
   196    5.447865952052e-05
   197   -2.324127464167e-02
   198    9.198603495837e-11
   199   -2.049988176375e-16
   200    7.744080054750e-03
   201    6.257160869246e-02
   202    1.351143649471e-10
   203    1.897233904514e-14
   204    2.050295246122e-02
   205   -1.498202154420e-02
   206    5.142269684314e-10
   207    3.231454058903e-14
   208   -4.891748018241e-02
   209   -2.563401950092e-02
   210   -2.654392979012e-08
   211   -4.886040806839e-14
   212   -7.122608397197e-02
   213    8.822394519544e-03
   214   -5.761759664841e-10
   215   -1.265468669513e-13
   216    1.928893795384e-02
   217    1.157352178937e-02
   218   -2.291461888245e-12
   219    9.697333118383e-15
   220    1.384097608287e-03
   221    1.040262046667e-14
   222   -1.442735108894e-02
   223   -4.703777759873e-02
   224    1.274101020854e-01
   225    1.561625495845e-01
   226   -3.013679740056e-01
   227   -4.238263547994e-01
   228    7.586047335732e-01
   229    4.543756470279e-01
   230    2.036952485244e-12
   231   -1.902786279239e-14
   232    1.319705673730e-03
   233    1.686501290620e-11
   234   -9.108261782641e-14
   235    1.108039070144e-02
   236   -4.139994680540e-11
   237   -9.365131140950e-13
   238   -3.039716185205e-02
   239   -2.089044100224e-11
   240   -2.524485527993e-13
   241   -1.242158854880e-02
   242    4.001280275495e-11
   243   -7.280286353411e-14
   244    3.242189228518e-02
   245    4.499439480382e-11
   246   -1.187387791519e-13
   247    6.740937667922e-02
   248    2.548692823111e-10
   249   -5.304661573034e-14
   250    1.870168094460e-02
   251   -1.134801258058e-03
   252    9.487962764860e-12
   253    3.079348261676e-12
   254    4.012242606839e-03
   255    9.945683382505e-12
   256   -8.621723044763e-04
   257   -1.914099543950e-13
   258    1.154902703598e-12
   259    1.536001415157e-03
   260    3.736263500376e-12
   261    7.556940579143e-02
   262    3.606887023767e-10
   263   -6.790754609683e-14
   264   -1.944468594426e-02
   265   -2.778856750751e-02
   266    1.720347412200e-10
   267   -5.005722222643e-13
   268    5.853706565761e-03
   269    9.081282374031e-04
   270   -1.579209010115e-12
   271    1.204698704031e-13
   272    1.710644033211e-03
   273    4.180976222668e-13
Sym=X
Ene= 2.000178
Spin=Alpha
Occup=1
     1   -7.654149202155e-03
     2   -1.195137060709e-02
     3   -2.312783985298e-03
     4    3.923293628707e-02
     5    3.863844622634e-05
     6    2.953504680279e-13
     7   -9.949873268598e-04
     8    2.582764119384e-05
     9    1.962980769883e-04
    10    1.024182807750e-03
    11    3.382496447011e-03
    12    8.345160346448e-03
    13    4.098276661047e-03
    14    1.852508394092e-02
    15   -2.116597297534e-02
    16    2.297382544019e-12
    17   -1.669643386287e-02
    18   -4.537214834510e-02
    19   -3.459371361580e-02
    20   -2.551671570307e-12
    21   -2.813575047120e-02
    22   -2.818576356162e-02
    23    6.749028939210e-03
    24    1.061170686993e-12
    25   -8.096998652846e-03
    26    2.555254675619e-02
    27    8.475858689687e-03
    28   -1.496566435433e-13
    29   -1.072538858440e-01
    30    4.577353273847e-04
    31    4.784073586854e-03
    32   -1.142715793048e-12
    33   -1.206845568851e-02
    34    2.952489146704e-03
    35    9.337032427321e-03
    36   -4.734889100416e-13
    37   -3.616536314134e-03
    38   -2.074948231734e-15
    39   -5.664191204058e-05
    40   -4.290298663251e-04
    41   -2.261110453746e-03
    42   -7.409084206097e-03
    43   -1.822578386407e-02
    44   -7.850693004606e-03
    45   -4.612032905367e-02
    46   -1.248897206293e-01
    47    2.271903918765e-12
    48   -2.021094176329e-02
    49    1.154553632868e-01
    50   -1.915955267772e-01
    51   -2.762947044074e-12
    52   -3.294367971857e-02
    53    8.074119919037e-02
    54   -1.398307074649e-01
    55    1.813575580097e-12
    56   -2.577139833287e-02
    57   -1.329855714830e-01
    58   -4.730374192327e-02
    59   -1.255181114334e-12
    60   -1.152917238730e-01
    61   -7.018438446768e-03
    62   -7.124927163600e-03
    63    3.579550824974e-12
    64    1.290646740153e-03
    65   -4.346091771657e-03
    66    1.562861795442e-02
    67    4.750817342638e-13
    68    8.761739146066e-03
    69   -3.991934546781e-14
    70    1.293415001709e-01
    71    1.998242866991e-01
    72    3.098080276533e-02
    73   -4.880961871047e-02
    74    1.472894264881e-02
    75    3.202859708262e-13
    76    1.089466172280e-02
    77    5.967103649399e-14
    78    4.537122830948e-13
    79    2.332959740508e-12
    80    7.867185368058e-12
    81    1.580501958493e-11
    82   -1.337265176809e-11
    83    5.832558476228e-11
    84    6.731398985224e-02
    85    3.566769824169e-15
    86    1.182482076025e-11
    87   -3.615494099974e-12
    88    1.041273273548e-01
    89   -2.551332081809e-14
    90    2.727588248320e-11
    91   -1.645940635487e-09
    92    6.190956167663e-02
    93   -9.647152540771e-14
    94   -5.567391385510e-10
    95   -1.366222686587e-09
    96    7.945740430149e-02
    97    3.612020774089e-13
    98   -1.973965057038e-09
    99   -3.013813182227e-10
   100    7.476761285251e-03
   101   -3.328139526854e-12
   102   -1.634335616851e-11
   103   -2.487515637423e-11
   104    1.637418788923e-02
   105    8.374781698270e-15
   106    4.657858616129e-12
   107   -8.415743735086e-13
   108   -3.350870436977e-11
   109   -1.261379221782e-10
   110   -5.117773603752e-11
   111   -1.594069200771e-09
   112    4.685106544186e-03
   113   -1.251317013228e-14
   114   -4.997591734876e-13
   115    5.664191191395e-05
   116    4.290298653537e-04
   117    2.261110448772e-03
   118    7.409084189394e-03
   119    1.822578382377e-02
   120    7.850692989052e-03
   121    4.612032897803e-02
   122   -1.248897205240e-01
   123   -2.257022904230e-12
   124    2.021094164666e-02
   125   -1.154553631960e-01
   126   -1.915955266105e-01
   127    2.656637096666e-12
   128    3.294367948476e-02
   129   -8.074119903067e-02
   130   -1.398307087807e-01
   131   -1.104139600938e-12
   132    2.577139807649e-02
   133    1.329855765503e-01
   134   -4.730374781302e-02
   135    2.124532642658e-13
   136    1.152917294178e-01
   137    7.018439218240e-03
   138   -7.124927647333e-03
   139    2.795974952969e-12
   140   -1.290646982708e-03
   141    4.346091778590e-03
   142    1.562861792928e-02
   143   -4.568106243169e-13
   144   -8.761739133498e-03
   145   -5.816665656925e-14
   146   -1.293414999635e-01
   147   -1.998242863443e-01
   148   -3.098080031476e-02
   149    4.880962500606e-02
   150    1.472894262774e-02
   151   -3.060067714517e-13
   152   -1.089466171302e-02
   153   -2.582764126804e-05
   154   -1.962980775894e-04
   155   -1.024182810474e-03
   156   -3.382496457228e-03
   157   -8.345160365807e-03
   158   -4.098276646511e-03
   159   -1.852508394438e-02
   160   -2.116597304793e-02
   161   -2.243026365109e-12
   162    1.669643379974e-02
   163    4.537214801462e-02
   164   -3.459371374839e-02
   165    2.788211056465e-12
   166    2.813575040454e-02
   167    2.818576382516e-02
   168    6.749029870121e-03
   169   -1.688393367103e-12
   170    8.096998092554e-03
   171   -2.555254439150e-02
   172    8.475858890261e-03
   173    1.030878977477e-12
   174    1.072538871461e-01
   175   -4.577346501296e-04
   176    4.784073573385e-03
   177   -1.718842030846e-12
   178    1.206845609704e-02
   179   -2.952489172850e-03
   180    9.337032375218e-03
   181    4.397819508584e-13
   182    3.616536314243e-03
   183   -8.091404105301e-14
   184    7.654149067804e-03
   185    1.195137039886e-02
   186    2.312782543250e-03
   187   -3.923293738648e-02
   188    3.863847016345e-05
   189   -3.422621258772e-13
   190    9.949873346544e-04
   191   -7.830489848137e-14
   192   -5.956216913614e-13
   193   -3.148237740552e-12
   194   -1.027860736630e-11
   195   -2.469901683221e-11
   196   -6.556094127090e-12
   197   -7.006043552941e-11
   198    5.183332938757e-02
   199   -3.518039164291e-14
   200    5.379900656649e-13
   201    1.838975549125e-10
   202    5.875186471146e-02
   203   -5.149527166910e-14
   204    4.668988383913e-12
   205    1.162184310421e-09
   206    1.506765631807e-02
   207    4.286851574726e-14
   208   -9.023472375987e-11
   209   -4.748446639772e-09
   210   -1.529212178811e-01
   211    4.715002836114e-14
   212    6.065396199606e-09
   213   -3.448656497853e-10
   214    1.870959761839e-03
   215   -1.456240028220e-12
   216    6.203068794529e-10
   217    1.181116921162e-11
   218   -4.913955254041e-03
   219   -1.594110657721e-13
   220   -1.960686584234e-11
   221   -8.417539658969e-13
   222    6.888753770750e-13
   223    5.260775902924e-12
   224   -2.353371153832e-11
   225   -2.947195869824e-11
   226    5.845169296404e-11
   227    8.146241640327e-11
   228   -1.561614585045e-10
   229   -3.684817669210e-10
   230    1.515342974997e-03
   231   -9.887933849783e-14
   232   -4.408028936120e-12
   233    1.263570665875e-02
   234    9.536661388140e-14
   235   -3.628045456208e-11
   236   -3.240891613257e-02
   237   -1.653264276296e-11
   238    8.586849697798e-11
   239   -1.401068307145e-02
   240   -4.461084716728e-12
   241    2.177622819092e-11
   242    2.772533469533e-02
   243   -1.069484831032e-12
   244   -3.277737375554e-11
   245    6.377399138856e-02
   246   -1.655710015054e-12
   247   -2.424552656730e-10
   248    3.912029120390e-02
   249   -1.142604207148e-12
   250    3.719010559653e-10
   251    9.366796131027e-12
   252   -2.943709435424e-03
   253   -4.762481430639e-12
   254    1.280890977580e-11
   255    2.105931512583e-12
   256    4.594508045056e-12
   257   -1.466314289594e-03
   258   -1.764868761081e-12
   259    2.350905463400e-12
   260    8.489986534616e-13
   261   -5.412166406410e-09
   262    9.357737269235e-03
   263   -5.740784462754e-14
   264    1.274497113473e-09
   265   -7.215324738805e-10
   266   -7.044540244759e-03
   267    1.071836758592e-12
   268   -1.075431999600e-11
   269   -4.079234101570e-11
   270   -3.703257789943e-03
   271    2.281662394524e-13
   272   -2.147086571415e-11
   273    1.828621797559e-13
Sym=X
Ene= 2.000071
Spin=Alpha
Occup=1
     1   -1.177442014553e-02
     2   -2.062407602406e-02
     3   -1.184166069122e-02
     4   -1.100373045942e-03
     5   -1.841101563369e-04
     6   -5.845932364881e-15
     7   -7.499432206876e-04
     8    5.109788528393e-05
     9    3.946617957540e-04
    10    1.982422212474e-03
    11    6.766492971814e-03
    12    1.595124309126e-02
    13    5.301299478011e-03
    14    2.482263034514e-02
    15   -7.776240212217e-03
    16   -1.174173442968e-13
    17   -2.155897875045e-02
    18   -1.420351191092e-02
    19   -1.079506201608e-02
    20   -2.137703925003e-13
    21   -3.531261490623e-02
    22   -3.435033907764e-02
    23   -1.084128206578e-03
    24   -1.391917128790e-13
    25   -4.962399332486e-03
    26   -1.514553058461e-01
    27   -6.541104299912e-03
    28    5.229718924528e-15
    29    4.967592191686e-02
    30   -2.285836507867e-02
    31   -1.247975479820e-03
    32    2.182815517524e-14
    33   -5.923744523911e-03
    34    5.720340441343e-03
    35    8.916205896001e-03
    36    1.028813860328e-14
    37   -4.279679729786e-03
    38   -2.250828043391e-14
    39   -1.045712978326e-04
    40   -7.921951034302e-04
    41   -4.171047839798e-03
    42   -1.367413208281e-02
    43   -3.370977256297e-02
    44   -1.469096043824e-02
    45   -8.360629042750e-02
    46   -8.705556441961e-02
    47   -1.028182612397e-13
    48   -3.664369881054e-02
    49    2.125103027873e-01
    50   -1.328550916649e-01
    51   -1.855943650984e-13
    52   -5.499930896734e-02
    53    1.726266166337e-01
    54   -7.774893707574e-02
    55   -1.166023348387e-13
    56   -3.849448839338e-02
    57   -9.982585543426e-02
    58   -9.017729239521e-02
    59   -2.837616152719e-14
    60   -2.086341706504e-03
    61   -2.124285083917e-02
    62   -3.872974400079e-03
    63   -7.363358640403e-13
    64    4.645890283082e-03
    65    1.410966767945e-04
    66    1.172135240293e-02
    67   -1.643084430850e-14
    68    8.022199051162e-03
    69   -2.378588805958e-14
    70    1.227935889040e-01
    71    1.841753624250e-01
    72    1.804278053938e-02
    73   -2.948846826483e-02
    74    1.668679388563e-02
    75   -9.384158954637e-16
    76    1.021200346253e-02
    77    1.220360364624e-05
    78    9.413215448937e-05
    79    4.767091907841e-04
    80    1.614054701378e-03
    81    3.682377746168e-03
    82    6.276698232789e-04
    83    7.752537317729e-03
    84   -2.136219904771e-10
    85   -6.373329092591e-14
    86   -1.537850546841e-02
    87   -1.239984919476e-02
    88   -3.249010936950e-10
    89   -1.229385832483e-13
    90   -2.044845667513e-02
    91   -4.794232307422e-02
    92   -3.855980723624e-10
    93   -6.114341559398e-14
    94   -1.285017158282e-02
    95    3.207309732875e-01
    96    2.987011257664e-08
    97   -1.288759502233e-14
    98    8.028252072276e-02
    99    1.373500730757e-02
   100    1.050368502669e-09
   101    8.978299521890e-13
   102   -3.616681671887e-03
   103   -1.349035375252e-02
   104   -1.876437608676e-11
   105   -6.810390904380e-15
   106    9.050690009734e-03
   107    1.595744260848e-14
   108    1.788461850904e-03
   109    6.770372851067e-04
   110   -9.767097371973e-03
   111    3.076915858326e-02
   112   -2.719110309965e-12
   113   -6.278500415990e-15
   114    3.407924992233e-03
   115   -1.045712982547e-04
   116   -7.921951066892e-04
   117   -4.171047856057e-03
   118   -1.367413213863e-02
   119   -3.370977269673e-02
   120   -1.469096050001e-02
   121   -8.360629059042e-02
   122    8.705556464435e-02
   123    7.045779286677e-15
   124   -3.664369846846e-02
   125    2.125103028279e-01
   126    1.328550920455e-01
   127    3.462963276751e-16
   128   -5.499930833574e-02
   129    1.726266158637e-01
   130    7.774893701274e-02
   131    8.238434478818e-14
   132   -3.849448931038e-02
   133   -9.982586202056e-02
   134    9.017733187656e-02
   135   -9.309249900554e-15
   136   -2.086289719640e-03
   137   -2.124284894363e-02
   138    3.872974299387e-03
   139   -6.774101819329e-13
   140    4.645892345831e-03
   141    1.410967090332e-04
   142   -1.172135241843e-02
   143    1.958430561816e-15
   144    8.022199023289e-03
   145    1.084603829560e-14
   146    1.227935888775e-01
   147    1.841753624228e-01
   148    1.804277994416e-02
   149   -2.948847045499e-02
   150   -1.668679387412e-02
   151    1.432040542602e-15
   152    1.021200349928e-02