[Molden Format]
[Atoms] (Angs)
  H      1    1     -2.14344049      0.00000000     -0.22359064
  C      2    6     -1.21326725     -0.00000000     -0.77278636
  C      3    6     -1.20502948     -0.00000000     -2.16587022
  H      4    1     -2.14438543     -0.00000000     -2.70149179
  C      5    6      0.00000000     -0.00000000     -2.86507761
  H      6    1      0.00000000     -0.00000000     -3.94588772
  C      7    6      1.20502948     -0.00000000     -2.16587022
  H      8    1      2.14438543     -0.00000000     -2.70149179
  C      9    6      1.21326725     -0.00000000     -0.77278636
  H     10    1      2.14344049     -0.00000000     -0.22359064
  C     11    6     -0.00000000     -0.00000000     -0.08999076
 Br     12   35     -0.00000000      0.00000000      1.79400976
[GTO]
1    0
S    3    1.000000
   3.38650000E+01    2.54938000E-02 
   5.09479000E+00    1.90373000E-01 
   1.15879000E+00    8.52161000E-01 
S    1    1.000000
   3.25840000E-01    1.00000000E+00 
S    1    1.000000
   1.02741000E-01    1.00000000E+00 
S    1    1.000000
   3.60000000E-02    1.00000000E+00 
P    1    1.000000
   7.50000000E-01    1.00000000E+00 

2    0
S    1    1.000000
   4.56324000E+03    1.96665000E-03 
S    1    1.000000
   6.82024000E+02    1.52306000E-02 
S    1    1.000000
   1.54973000E+02    7.61269000E-02 
S    1    1.000000
   4.44553000E+01    2.60801000E-01 
S    1    1.000000
   1.30290000E+01    6.16462000E-01 
S    1    1.000000
   1.82773000E+00    2.21006000E-01 
SP   3    1.000000
   2.09642000E+01    1.14660000E-01   4.02487000E-02 
   4.80331000E+00    9.19999000E-01   2.37594000E-01 
   1.45933000E+00   -3.03068000E-03   8.15854000E-01 
SP   1    1.000000
   4.83456000E-01    1.00000000E+00   1.00000000E+00 
SP   1    1.000000
   1.45585000E-01    1.00000000E+00   1.00000000E+00 
SP   1    1.000000
   4.38000000E-02    1.00000000E+00   1.00000000E+00 
SP   1    1.000000
   1.31927711E-02    1.00000000E+00   1.00000000E+00 
D    1    1.000000
   6.26000000E-01    1.00000000E+00 

3    0
S    1    1.000000
   4.56324000E+03    1.96665000E-03 
S    1    1.000000
   6.82024000E+02    1.52306000E-02 
S    1    1.000000
   1.54973000E+02    7.61269000E-02 
S    1    1.000000
   4.44553000E+01    2.60801000E-01 
S    1    1.000000
   1.30290000E+01    6.16462000E-01 
S    1    1.000000
   1.82773000E+00    2.21006000E-01 
SP   3    1.000000
   2.09642000E+01    1.14660000E-01   4.02487000E-02 
   4.80331000E+00    9.19999000E-01   2.37594000E-01 
   1.45933000E+00   -3.03068000E-03   8.15854000E-01 
SP   1    1.000000
   4.83456000E-01    1.00000000E+00   1.00000000E+00 
SP   1    1.000000
   1.45585000E-01    1.00000000E+00   1.00000000E+00 
SP   1    1.000000
   4.38000000E-02    1.00000000E+00   1.00000000E+00 
SP   1    1.000000
   1.31927711E-02    1.00000000E+00   1.00000000E+00 
D    1    1.000000
   6.26000000E-01    1.00000000E+00 

4    0
S    3    1.000000
   3.38650000E+01    2.54938000E-02 
   5.09479000E+00    1.90373000E-01 
   1.15879000E+00    8.52161000E-01 
S    1    1.000000
   3.25840000E-01    1.00000000E+00 
S    1    1.000000
   1.02741000E-01    1.00000000E+00 
S    1    1.000000
   3.60000000E-02    1.00000000E+00 
P    1    1.000000
   7.50000000E-01    1.00000000E+00 

5    0
S    1    1.000000
   4.56324000E+03    1.96665000E-03 
S    1    1.000000
   6.82024000E+02    1.52306000E-02 
S    1    1.000000
   1.54973000E+02    7.61269000E-02 
S    1    1.000000
   4.44553000E+01    2.60801000E-01 
S    1    1.000000
   1.30290000E+01    6.16462000E-01 
S    1    1.000000
   1.82773000E+00    2.21006000E-01 
SP   3    1.000000
   2.09642000E+01    1.14660000E-01   4.02487000E-02 
   4.80331000E+00    9.19999000E-01   2.37594000E-01 
   1.45933000E+00   -3.03068000E-03   8.15854000E-01 
SP   1    1.000000
   4.83456000E-01    1.00000000E+00   1.00000000E+00 
SP   1    1.000000
   1.45585000E-01    1.00000000E+00   1.00000000E+00 
SP   1    1.000000
   4.38000000E-02    1.00000000E+00   1.00000000E+00 
SP   1    1.000000
   1.31927711E-02    1.00000000E+00   1.00000000E+00 
D    1    1.000000
   6.26000000E-01    1.00000000E+00 

6    0
S    3    1.000000
   3.38650000E+01    2.54938000E-02 
   5.09479000E+00    1.90373000E-01 
   1.15879000E+00    8.52161000E-01 
S    1    1.000000
   3.25840000E-01    1.00000000E+00 
S    1    1.000000
   1.02741000E-01    1.00000000E+00 
S    1    1.000000
   3.60000000E-02    1.00000000E+00 
P    1    1.000000
   7.50000000E-01    1.00000000E+00 

7    0
S    1    1.000000
   4.56324000E+03    1.96665000E-03 
S    1    1.000000
   6.82024000E+02    1.52306000E-02 
S    1    1.000000
   1.54973000E+02    7.61269000E-02 
S    1    1.000000
   4.44553000E+01    2.60801000E-01 
S    1    1.000000
   1.30290000E+01    6.16462000E-01 
S    1    1.000000
   1.82773000E+00    2.21006000E-01 
SP   3    1.000000
   2.09642000E+01    1.14660000E-01   4.02487000E-02 
   4.80331000E+00    9.19999000E-01   2.37594000E-01 
   1.45933000E+00   -3.03068000E-03   8.15854000E-01 
SP   1    1.000000
   4.83456000E-01    1.00000000E+00   1.00000000E+00 
SP   1    1.000000
   1.45585000E-01    1.00000000E+00   1.00000000E+00 
SP   1    1.000000
   4.38000000E-02    1.00000000E+00   1.00000000E+00 
SP   1    1.000000
   1.31927711E-02    1.00000000E+00   1.00000000E+00 
D    1    1.000000
   6.26000000E-01    1.00000000E+00 

8    0
S    3    1.000000
   3.38650000E+01    2.54938000E-02 
   5.09479000E+00    1.90373000E-01 
   1.15879000E+00    8.52161000E-01 
S    1    1.000000
   3.25840000E-01    1.00000000E+00 
S    1    1.000000
   1.02741000E-01    1.00000000E+00 
S    1    1.000000
   3.60000000E-02    1.00000000E+00 
P    1    1.000000
   7.50000000E-01    1.00000000E+00 

9    0
S    1    1.000000
   4.56324000E+03    1.96665000E-03 
S    1    1.000000
   6.82024000E+02    1.52306000E-02 
S    1    1.000000
   1.54973000E+02    7.61269000E-02 
S    1    1.000000
   4.44553000E+01    2.60801000E-01 
S    1    1.000000
   1.30290000E+01    6.16462000E-01 
S    1    1.000000
   1.82773000E+00    2.21006000E-01 
SP   3    1.000000
   2.09642000E+01    1.14660000E-01   4.02487000E-02 
   4.80331000E+00    9.19999000E-01   2.37594000E-01 
   1.45933000E+00   -3.03068000E-03   8.15854000E-01 
SP   1    1.000000
   4.83456000E-01    1.00000000E+00   1.00000000E+00 
SP   1    1.000000
   1.45585000E-01    1.00000000E+00   1.00000000E+00 
SP   1    1.000000
   4.38000000E-02    1.00000000E+00   1.00000000E+00 
SP   1    1.000000
   1.31927711E-02    1.00000000E+00   1.00000000E+00 
D    1    1.000000
   6.26000000E-01    1.00000000E+00 

10    0
S    3    1.000000
   3.38650000E+01    2.54938000E-02 
   5.09479000E+00    1.90373000E-01 
   1.15879000E+00    8.52161000E-01 
S    1    1.000000
   3.25840000E-01    1.00000000E+00 
S    1    1.000000
   1.02741000E-01    1.00000000E+00 
S    1    1.000000
   3.60000000E-02    1.00000000E+00 
P    1    1.000000
   7.50000000E-01    1.00000000E+00 

11    0
S    1    1.000000
   4.56324000E+03    1.96665000E-03 
S    1    1.000000
   6.82024000E+02    1.52306000E-02 
S    1    1.000000
   1.54973000E+02    7.61269000E-02 
S    1    1.000000
   4.44553000E+01    2.60801000E-01 
S    1    1.000000
   1.30290000E+01    6.16462000E-01 
S    1    1.000000
   1.82773000E+00    2.21006000E-01 
SP   3    1.000000
   2.09642000E+01    1.14660000E-01   4.02487000E-02 
   4.80331000E+00    9.19999000E-01   2.37594000E-01 
   1.45933000E+00   -3.03068000E-03   8.15854000E-01 
SP   1    1.000000
   4.83456000E-01    1.00000000E+00   1.00000000E+00 
SP   1    1.000000
   1.45585000E-01    1.00000000E+00   1.00000000E+00 
SP   1    1.000000
   4.38000000E-02    1.00000000E+00   1.00000000E+00 
SP   1    1.000000
   1.31927711E-02    1.00000000E+00   1.00000000E+00 
D    1    1.000000
   6.26000000E-01    1.00000000E+00 

12    0
S    6    1.000000
   4.39700000E+05    8.13000000E-04 
   6.60300000E+04    6.28500000E-03 
   1.51400000E+04    3.19200000E-02 
   4.31700000E+03    1.28800000E-01 
   1.41400000E+03    3.94600000E-01 
   5.23900000E+02    5.41300000E-01 
S    3    1.000000
   5.23900000E+02    1.83100000E-01 
   2.07700000E+02    6.17600000E-01 
   8.65400000E+01    2.53800000E-01 
S    1    1.000000
   3.05200000E+01    1.00000000E+00 
S    1    1.000000
   1.29800000E+01    1.00000000E+00 
S    1    1.000000
   4.41200000E+00    1.00000000E+00 
S    1    1.000000
   1.86200000E+00    1.00000000E+00 
S    1    1.000000
   3.93200000E-01    1.00000000E+00 
S    1    1.000000
   1.40000000E-01    1.00000000E+00 
P    3    1.000000
   2.95700000E+03    2.22600000E-02 
   7.00300000E+02    1.80200000E-01 
   2.24600000E+02    8.62400000E-01 
P    3    1.000000
   8.25900000E+01    3.44000000E-01 
   3.31900000E+01    5.07100000E-01 
   1.42000000E+01    2.59000000E-01 
P    3    1.000000
   1.42000000E+01    7.96500000E-02 
   7.43800000E+00    3.73400000E-01 
   3.52600000E+00    6.04900000E-01 
P    1    1.000000
   1.59500000E+00    1.00000000E+00 
P    1    1.000000
   8.46200000E-01    1.00000000E+00 
P    1    1.000000
   3.18600000E-01    1.00000000E+00 
P    1    1.000000
   1.09600000E-01    1.00000000E+00 
D    4    1.000000
   1.34800000E+02    1.83100000E-02 
   3.63900000E+01    1.35000000E-01 
   1.21600000E+01    4.26100000E-01 
   4.34100000E+00    6.04300000E-01 
D    1    1.000000
   1.53500000E+00    1.00000000E+00 
SP   1    1.000000
   3.90000000E-02    1.00000000E+00   1.00000000E+00 
SP   1    1.000000
   1.17469880E-02    1.00000000E+00   1.00000000E+00 
D    1    1.000000
   4.15000000E-01    1.00000000E+00 

[MO]
Sym=X
Ene= 2.000575
Spin=Alpha
Occup=1
     1    2.538109095932e-14
     2    9.993035962269e-13
     3   -4.622151034544e-12
     4   -3.139384787917e-12
     5    5.662611967204e-14
     6   -2.075353511632e-03
     7   -1.268041758971e-14
     8   -3.390491965354e-15
     9   -2.407750274462e-14
    10   -1.246880226745e-13
    11   -4.264893653884e-13
    12   -1.011165728120e-12
    13   -3.338239647073e-13
    14   -1.379499779745e-12
    15    2.051869616465e-13
    16   -3.645877964341e-02
    17   -9.906766387236e-14
    18    1.462613275912e-13
    19    5.533916177161e-13
    20   -6.348217651203e-02
    21   -1.207365923544e-13
    22   -1.088644864028e-12
    23   -1.364395679683e-12
    24   -3.721830242370e-02
    25   -9.681143371406e-13
    26    3.211407797977e-11
    27    3.714305486008e-12
    28    1.943460849623e-02
    29    1.856247781925e-11
    30   -4.935614615655e-12
    31   -4.375244379796e-11
    32   -1.103144037150e-02
    33    3.365999539992e-11
    34   -8.995880146209e-14
    35   -2.316306327364e-14
    36    1.833132534117e-02
    37   -4.351333925179e-14
    38   -1.496799969289e-03
    39    3.100818592647e-15
    40    2.500976703656e-14
    41    1.208517068736e-13
    42    4.273289865105e-13
    43    9.885249886931e-13
    44    5.077557330911e-13
    45    1.277730168078e-12
    46   -8.230266979894e-13
    47   -1.128824028388e-01
    48    9.673749412456e-14
    49   -4.627231493604e-13
    50   -1.224524500708e-12
    51   -1.954059426479e-01
    52   -1.001725155191e-14
    53   -1.020748974195e-13
    54   -1.102828007624e-12
    55   -1.582926663831e-01
    56    8.710018041267e-13
    57    2.314953005278e-11
    58    4.379793284970e-12
    59   -1.535083075556e-02
    60    6.381697302129e-12
    61   -5.212582728993e-12
    62    2.641134639150e-11
    63    7.947694189544e-03
    64   -3.028616576936e-11
    65    7.233258090646e-14
    66    1.756836165709e-13
    67    1.589047700621e-03
    68    3.762781927455e-14
    69   -2.233035370106e-02
    70    4.778284308733e-13
    71    8.367799492275e-14
    72    1.838133285129e-12
    73    8.554752294441e-12
    74    4.036730379612e-14
    75   -8.410834260291e-03
    76    3.109394732954e-14
    77   -9.403272984555e-16
    78   -7.077808243579e-15
    79   -3.175167537316e-14
    80   -1.186361959224e-13
    81   -2.961003912556e-13
    82   -2.130417152933e-13
    83   -3.119076244628e-13
    84    9.753980211863e-13
    85   -1.485728121867e-01
    86   -3.595427229330e-13
    87   -4.237993403405e-14
    88    2.036678337891e-12
    89   -2.567433466042e-01
    90   -5.803829694879e-13
    91    1.057563098835e-12
    92   -1.786954350403e-12
    93   -2.177680956703e-01
    94   -6.057629953401e-13
    95    2.373347400358e-12
    96    4.019006207778e-12
    97   -1.120065975480e-02
    98   -5.747181062745e-12
    99   -1.695324317364e-12
   100   -1.608802650094e-11
   101   -9.169751049702e-03
   102    1.209159131807e-11
   103   -2.717631234752e-14
   104    8.216400053652e-14
   105   -2.209794277138e-02
   106   -2.216147500900e-14
   107    3.038004541182e-13
   108    3.268307594605e-13
   109    4.940882546638e-13
   110   -1.357500148932e-12
   111   -6.991353718017e-12
   112    2.336814205316e-14
   113   -1.139330345245e-02
   114    1.449832995947e-13
   115   -1.542322205832e-15
   116   -1.184212448270e-14
   117   -6.036280021034e-14
   118   -1.976482931062e-13
   119   -5.151099333699e-13
   120   -2.160634490728e-13
   121   -4.570795299948e-13
   122   -6.587196222472e-13
   123   -1.128824028366e-01
   124   -3.088464122110e-13
   125   -1.436577506019e-13
   126   -1.129243011631e-12
   127   -1.954059426448e-01
   128   -5.028953656964e-13
   129   -2.165581856144e-12
   130   -8.590194813829e-13
   131   -1.582926663703e-01
   132   -1.640399835742e-12
   133   -1.700688368186e-11
   134    4.354083375329e-12
   135   -1.535083081456e-02
   136   -1.173837056719e-12
   137    4.223514245193e-12
   138    2.011195462894e-11
   139    7.947694035110e-03
   140    9.882859947664e-12
   141    9.501795380064e-14
   142    2.844302330165e-13
   143    1.589047700493e-03
   144    6.897861404840e-14
   145    2.233035370098e-02
   146   -5.085138366129e-13
   147    1.428919678868e-14
   148   -1.575770992924e-12
   149   -6.851652375781e-12
   150    4.422903168656e-14
   151   -8.410834260239e-03
   152   -4.952169241448e-14
   153    1.968307766017e-15
   154    1.736088479257e-14
   155    8.629211910952e-14
   156    2.962654178513e-13
   157    6.913328196168e-13
   158    2.576405799140e-13
   159    9.246807212905e-13
   160    1.621634734405e-13
   161   -3.645877964547e-02
   162    4.301408629401e-13
   163   -2.098481682567e-14
   164    7.957215983798e-13
   165   -6.348217651447e-02
   166    6.756106308221e-13
   167    4.257299333543e-12
   168   -2.221007800442e-12
   169   -3.721830243663e-02
   170    2.543050285144e-13
   171   -3.503897094475e-11
   172   -2.137694581866e-12
   173    1.943460855548e-02
   174   -1.931166924097e-11
   175    2.607637495953e-12
   176   -3.864911131697e-11
   177   -1.103144021391e-02
   178   -1.821896965208e-11
   179   -1.032487840180e-13
   180    9.567224804683e-14
   181    1.833132534088e-02
   182   -6.477092179841e-15
   183    1.496799969473e-03
   184    3.622503229909e-13
   185   -8.186352319275e-13
   186    5.496040162545e-12
   187    1.078972719168e-11
   188   -2.804439889720e-14
   189   -2.075353511649e-03
   190    3.917856418628e-14
   191   -3.980486126139e-16
   192    3.287648220875e-17
   193   -4.003666381906e-15
   194   -3.449713024915e-15
   195   -1.052942744318e-14
   196    5.643820892248e-14
   197   -6.565697238794e-14
   198    1.171071318522e-13
   199    4.478718336059e-02
   200   -6.729692141935e-14
   201    1.514361626499e-13
   202    1.619388412343e-13
   203    4.766939300237e-02
   204   -2.634828802060e-13
   205   -1.388204810002e-12
   206   -2.736123491111e-12
   207    5.834583072437e-02
   208   -5.055299094941e-13
   209   -5.381957292296e-12
   210    3.138837043831e-11
   211   -3.752650562586e-03
   212    3.469777651543e-12
   213   -3.858500798133e-12
   214    3.930488908529e-11
   215    3.074269683562e-03
   216   -1.225376093358e-11
   217   -4.016877391593e-14
   218    1.027083044728e-13
   219    1.243351201016e-02
   220    1.452025392984e-13
   221   -1.967304844507e-13
   222   -8.386054801701e-13
   223   -1.749907596497e-12
   224    1.534323399062e-12
   225    1.637031751016e-12
   226   -2.336383628520e-12
   227   -2.784836670025e-12
   228    3.440221141245e-12
   229    2.291436302093e-12
   230   -2.834581922091e-13
   231    1.828765284851e-03
   232    2.919121320336e-14
   233   -2.090391267401e-12
   234    1.528402784820e-02
   235    3.311809469482e-13
   236    8.656887053284e-14
   237   -4.004091434467e-02
   238   -2.406975328663e-12
   239    3.877988596973e-14
   240   -1.781713936821e-02
   241   -7.546317735138e-13
   242    3.377999169746e-13
   243    3.662920882190e-02
   244    3.932980094296e-13
   245    1.274787914393e-12
   246    8.383194924677e-02
   247    8.902719176051e-13
   248   -9.804547629808e-14
   249    4.375437074762e-02
   250    6.327594364324e-13
   251    6.192563967095e-13
   252   -2.849189575208e-12
   253    1.002792802588e-02
   254   -4.090240023325e-13
   255    1.054734568720e-12
   256    1.369595153996e-13
   257   -1.044772944655e-12
   258    2.973393394109e-03
   259   -1.416969601484e-13
   260    4.035913115338e-13
   261   -1.856139493051e-12
   262   -9.718028663015e-13
   263   -6.496217006246e-03
   264    5.025620558919e-13
   265    7.421707717524e-12
   266    7.842925050818e-12
   267    7.127940250974e-03
   268    9.785787813188e-14
   269   -2.124879358093e-13
   270    1.140485073658e-13
   271   -1.043653300566e-02
   272   -3.357849454476e-15
   273    4.249490875365e-13
Sym=X
Ene= 2.000521
Spin=Alpha
Occup=1
     1    1.626350710930e-02
     2    2.623094017390e-02
     3    3.641801171449e-03
     4   -4.179492582405e-02
     5    1.088349499159e-03
     6   -3.603844926663e-13
     7    9.232798229206e-04
     8   -1.639826355354e-05
     9   -1.242706657158e-04
    10   -6.522203687911e-04
    11   -2.142953760602e-03
    12   -5.355292289446e-03
    13   -2.873055818934e-03
    14   -1.209295900618e-02
    15    1.838504313098e-02
    16   -2.948649584077e-12
    17    3.830725612730e-02
    18    3.065807770470e-02
    19    3.081954333958e-02
    20    2.518810041137e-12
    21    6.186507938915e-02
    22    1.280119497278e-02
    23   -1.437986861833e-02
    24   -1.480800318583e-12
    25    3.355207301911e-02
    26    1.748748324948e-01
    27    3.247092912119e-02
    28    1.852728831252e-13
    29    1.229140122956e-01
    30   -2.217359213193e-03
    31   -2.314724499373e-02
    32   -2.439867750635e-12
    33    7.912419151851e-03
    34   -3.920773343464e-03
    35   -1.100427447096e-02
    36    6.368358119907e-13
    37    4.251629108216e-03
    38   -1.993353119563e-14
    39    3.821395850329e-06
    40    2.905786351679e-05
    41    1.531136529462e-04
    42    5.027313570616e-04
    43    1.149122859765e-03
    44    8.919567885301e-05
    45    3.717906162700e-03
    46    1.417158777652e-01
    47   -3.215353229932e-12
    48   -3.172497561884e-02
    49   -5.606205488482e-03
    50    2.194640553287e-01
    51    2.239732822484e-12
    52   -4.706753270986e-02
    53   -5.302675851318e-03
    54    1.529985615543e-01
    55   -2.898819520387e-12
    56   -6.763934815230e-03
    57    4.627369124496e-02
    58   -5.533012904445e-03
    59    1.291101961125e-12
    60    9.450462696830e-02
    61    6.262990502753e-03
    62    2.747442880804e-02
    63    3.773145094564e-12
    64    1.872901042795e-03
    65    1.874572366994e-03
    66   -1.948919079798e-02
    67   -5.624424577389e-13
    68   -2.485397205807e-03
    69   -6.733096233031e-14
    70   -9.691056538009e-02
    71   -1.503594959369e-01
    72   -2.760649148525e-02
    73    2.448395661641e-02
    74   -8.125810560498e-03
    75   -4.090089647038e-13
    76   -9.913836948380e-03
    77   -6.561361827488e-14
    78   -4.897902958365e-13
    79   -2.597009071844e-12
    80   -8.482610773938e-12
    81   -2.079184067365e-11
    82   -6.241761789263e-12
    83   -5.371138243954e-11
    84   -1.479304427459e-01
    85   -7.036786492771e-13
    86    6.851837880639e-11
    87    1.196909489100e-10
    88   -2.313824596929e-01
    89   -1.203563049166e-12
    90    9.323528586162e-11
    91   -5.543663676755e-10
    92   -1.086634881324e-01
    93   -8.195050363665e-13
    94    1.451661320068e-09
    95    2.572090146424e-08
    96   -7.560526562281e-02
    97   -3.846264099833e-13
    98    1.068138703355e-08
    99    2.030280332786e-09
   100   -3.146149669250e-02
   101   -4.554911204843e-12
   102   -4.004821736801e-10
   103    3.350695079427e-11
   104   -2.796236905329e-02
   105   -1.185014544387e-13
   106   -1.203388865455e-11
   107    9.952549203679e-13
   108    4.699839854734e-11
   109    2.909417213045e-10
   110    2.187681329452e-09
   111    4.748085634175e-09
   112   -8.347401928155e-03
   113   -3.705053003674e-14
   114   -2.848750856476e-12
   115   -3.821395644141e-06
   116   -2.905786194965e-05
   117   -1.531136447137e-04
   118   -5.027313300397e-04
   119   -1.149122793772e-03
   120   -8.919565300912e-05
   121   -3.717905997609e-03
   122    1.417158774736e-01
   123    2.108411485698e-12
   124    3.172497575983e-02
   125    5.606205094832e-03
   126    2.194640548520e-01
   127   -4.023412266401e-12
   128    4.706753302865e-02
   129    5.302673428032e-03
   130    1.529985621515e-01
   131    5.620410563041e-13
   132    6.763932821450e-03
   133   -4.627370247490e-02
   134   -5.532999565150e-03
   135   -3.550213733319e-13
   136   -9.450462860810e-02
   137   -6.262991783853e-03
   138    2.747443039256e-02
   139    4.633284127830e-12
   140   -1.872899902301e-03
   141   -1.874572355407e-03
   142   -1.948919073841e-02
   143    5.369236912886e-13
   144    2.485397190150e-03
   145    1.692254513596e-13
   146    9.691056497629e-02
   147    1.503594952410e-01
   148    2.760648874734e-02
   149   -2.448396489814e-02
   150   -8.125810516630e-03
   151    3.152424231800e-13
   152    9.913836916912e-03
   153    1.639826341957e-05
   154    1.242706647136e-04
   155    6.522203633219e-04
   156    2.142953743212e-03
   157    5.355292246602e-03
   158    2.873055804248e-03
   159    1.209295885530e-02
   160    1.838504340134e-02
   161    2.408859074854e-12
   162   -3.830725609173e-02
   163   -3.065807721097e-02
   164    3.081954370830e-02
   165   -3.613170017287e-12
   166   -6.186507934959e-02
   167   -1.280119239078e-02
   168   -1.437986750269e-02
   169    1.835881979788e-12
   170   -3.355207440139e-02
   171   -1.748748547957e-01
   172    3.247093448793e-02
   173   -1.273749572058e-12
   174   -1.229140025424e-01
   175    2.217357820829e-03
   176   -2.314724557248e-02
   177   -1.714924513663e-12
   178   -7.912419266338e-03
   179    3.920773339574e-03
   180   -1.100427438708e-02
   181   -4.350726196670e-13
   182   -4.251629082450e-03
   183    1.032743152251e-13
   184   -1.626350683294e-02
   185   -2.623093962834e-02
   186   -3.641802887585e-03
   187    4.179492118912e-02
   188    1.088349457727e-03
   189    3.831408322786e-13
   190   -9.232798552210e-04
   191    1.117313997922e-13
   192    8.429910490386e-13
   193    4.502848133563e-12
   194    1.453861921353e-11
   195    3.796969793900e-11
   196    2.653116051743e-11
   197    8.892220602053e-11
   198   -6.210435454994e-02
   199    8.406011355055e-14
   200   -4.423913986170e-13
   201   -3.188993862957e-10
   202   -7.071285685329e-02
   203    1.698158362858e-13
   204    1.110364450467e-11
   205    7.606322900904e-10
   206   -1.571124506602e-02
   207   -2.192162728821e-13
   208   -2.620710106139e-10
   209    1.110900650938e-08
   210    2.351517037042e-01
   211    5.841223093398e-13
   212   -9.909080146501e-09
   213    1.739394818885e-09
   214    1.661530894236e-02
   215   -7.997520411455e-13
   216   -4.759338782500e-10
   217   -3.186665329872e-12
   218    4.654805273112e-03
   219    2.235222451771e-13
   220    1.223078531400e-11
   221    9.951517957003e-13
   222   -3.984865653500e-12
   223   -1.294360463913e-11
   224    3.433820632626e-11
   225    4.242806862162e-11
   226   -8.156508142205e-11
   227   -1.108243469762e-10
   228    2.087287732903e-10
   229    3.844370751881e-10
   230   -4.083574542564e-04
   231    1.556405999285e-13
   232    5.528563339872e-12
   233   -3.397371742162e-03
   234    8.808954198501e-13
   235    4.611107525491e-11
   236    8.574794608427e-03
   237    5.273755582252e-12
   238   -1.223311007924e-10
   239    3.870449599844e-03
   240    1.335659935402e-12
   241   -3.998575747474e-11
   242   -7.255131278498e-03
   243    7.613376452775e-13
   244    7.143883872327e-11
   245   -1.492133557242e-02
   246    1.481101928467e-12
   247    2.972109760953e-10
   248   -7.628351439287e-03
   249    9.972054917789e-13
   250   -1.057182349415e-10
   251   -1.268315131847e-13
   252    1.322214751931e-04
   253    1.305187570731e-12
   254    1.411360539359e-11
   255   -3.278912932051e-13
   256    1.068778493155e-12
   257    5.856395692948e-04
   258    4.716295247113e-13
   259    5.103125713766e-12
   260   -1.958571179405e-13
   261    5.717634088272e-09
   262   -1.407627480144e-02
   263    9.905054851869e-14
   264   -1.548562258508e-09
   265   -6.531955942493e-10
   266    5.958841637567e-03
   267    1.146748359586e-12
   268    3.719700506105e-10
   269    3.692024612013e-11
   270    3.397691798139e-03
   271   -4.438135653543e-13
   272   -6.307165561738e-11
   273   -1.313232891525e-13
Sym=X
Ene= 2.000077
Spin=Alpha
Occup=1
     1    2.105323798955e-02
     2    3.438434584221e-02
     3    1.170902725369e-02
     4   -3.256227576836e-03
     5    1.675988741741e-03
     6    2.391788705458e-15
     7    6.877407681629e-04
     8   -6.120990181263e-05
     9   -4.736075835604e-04
    10   -2.368198384345e-03
    11   -8.114540840736e-03
    12   -1.905945806949e-02
    13   -6.208918993453e-03
    14   -2.777459406466e-02
    15    3.298073353249e-03
    16    1.188524588453e-13
    17    4.040694161786e-02
    18    6.490041197454e-03
    19    4.177983911651e-03
    20    2.167388274059e-13
    21    6.488749511680e-02
    22    3.176743396886e-02
    23   -4.835646710318e-03
    24    1.056383518643e-13
    25    2.446237808090e-02
    26    1.412540892438e-01
    27    5.529773497909e-04
    28    3.134396318778e-14
    29   -4.242540294827e-02
    30    1.868423544012e-02
    31   -2.103031161169e-03
    32    1.725924232609e-12
    33   -3.314724064375e-03
    34   -8.487844050844e-03
    35   -8.789408466418e-03
    36   -3.227118766987e-14
    37    5.250849846000e-03
    38    1.828622320290e-14
    39    9.551921109716e-05
    40    7.205282902554e-04
    41    3.832930749154e-03
    42    1.245541240533e-02
    43    3.099998905549e-02
    44    1.419671489189e-02
    45    8.301168325425e-02
    46    8.454149568012e-02
    47    1.949408125439e-13
    48    2.121699808348e-02
    49   -2.326108984017e-01
    50    1.293765968233e-01
    51    3.459799610224e-13
    52    3.158007261072e-02
    53   -1.828160920389e-01
    54    7.039609768500e-02
    55    2.558590500794e-13
    56    2.599178371124e-02
    57    9.239885433270e-02
    58    8.601434254381e-02
    59   -1.139320782036e-14
    60    1.286839553136e-03
    61    1.943871434009e-02
    62    6.331942072221e-03
    63   -2.515384876538e-12
    64   -1.806727893597e-03
    65   -2.628414954357e-03
    66   -1.082979346328e-02
    67    1.341050913339e-14
    68   -7.317205358008e-03
    69    4.484999975220e-14
    70   -1.157989528014e-01
    71   -1.718035046081e-01
    72   -9.764085401267e-03
    73    2.806175925313e-02
    74   -1.621748033530e-02
    75    6.066114726149e-15
    76   -1.075828200352e-02
    77   -1.404412942383e-05
    78   -1.079085927444e-04
    79   -5.513298108744e-04
    80   -1.852501408193e-03
    81   -4.279323202541e-03
    82   -9.119033683743e-04
    83   -9.620199490677e-03
    84    2.348271438740e-10
    85    2.119895562746e-13
    86    1.347810950365e-02
    87    1.898715769599e-02
    88    3.610202895552e-10
    89    3.868729393355e-13
    90    1.813056309916e-02
    91    6.012745437073e-02
    92    2.994903270059e-10
    93    2.252649192833e-13
    94    1.899864748482e-02
    95   -3.076930390781e-01
    96   -1.262762154057e-08
    97    2.931536534041e-14
    98   -8.007534320898e-02
    99   -1.127016333362e-02
   100   -1.460580823735e-09
   101    2.621036838375e-12
   102    2.951738541035e-03
   103    1.172974531579e-02
   104    1.613183463635e-11
   105    3.269627853780e-14
   106   -8.117361079438e-03
   107   -4.454309981113e-15
   108   -5.931830328443e-04
   109    1.191965614024e-03
   110    7.017142456922e-03
   111   -3.231351713311e-02
   112    1.061460035268e-11
   113    1.561395871287e-14
   114   -2.542882454800e-03
   115    9.551921160840e-05
   116    7.205282942026e-04
   117    3.832930768900e-03
   118    1.245541247298e-02
   119    3.099998921599e-02
   120    1.419671495431e-02
   121    8.301168347520e-02
   122   -8.454149594925e-02
   123    1.780994427269e-13
   124    2.121699771546e-02
   125   -2.326108984714e-01
   126   -1.293765972489e-01
   127    3.237229537396e-13
   128    3.158007195797e-02
   129   -1.828160922324e-01
   130   -7.039609795142e-02
   131    2.010720423536e-13
   132    2.599178408263e-02
   133    9.239880144442e-02
   134   -8.601436507371e-02
   135    2.877212721434e-14
   136    1.286801847297e-03
   137    1.943871082457e-02
   138   -6.331939564654e-03
   139   -2.616618330151e-12
   140   -1.806729598113e-03
   141   -2.628414984729e-03
   142    1.082979347906e-02
   143    4.539898307363e-15
   144   -7.317205321598e-03
   145   -3.009509634516e-14
   146   -1.157989527675e-01
   147   -1.718035046143e-01
   148   -9.764083791016e-03
   149    2.806175786426e-02
   150    1.621748033229e-02
   151    1.596419590338e-14
   152   -1.075828204531e-02