[Molden Format]
[Atoms] (Angs)
  H      1    1     -2.14344049      0.00000000     -0.22359064
  C      2    6     -1.21326725     -0.00000000     -0.77278636
  C      3    6     -1.20502948     -0.00000000     -2.16587022
  H      4    1     -2.14438543     -0.00000000     -2.70149179
  C      5    6      0.00000000     -0.00000000     -2.86507761
  H      6    1      0.00000000     -0.00000000     -3.94588772
  C      7    6      1.20502948     -0.00000000     -2.16587022
  H      8    1      2.14438543     -0.00000000     -2.70149179
  C      9    6      1.21326725     -0.00000000     -0.77278636
  H     10    1      2.14344049     -0.00000000     -0.22359064
  C     11    6     -0.00000000     -0.00000000     -0.08999076
 Br     12   35     -0.00000000      0.00000000      1.79400976
[GTO]
1    0
S    3    1.000000
   3.38650000E+01    2.54938000E-02 
   5.09479000E+00    1.90373000E-01 
   1.15879000E+00    8.52161000E-01 
S    1    1.000000
   3.25840000E-01    1.00000000E+00 
S    1    1.000000
   1.02741000E-01    1.00000000E+00 
S    1    1.000000
   3.60000000E-02    1.00000000E+00 
P    1    1.000000
   7.50000000E-01    1.00000000E+00 

2    0
S    1    1.000000
   4.56324000E+03    1.96665000E-03 
S    1    1.000000
   6.82024000E+02    1.52306000E-02 
S    1    1.000000
   1.54973000E+02    7.61269000E-02 
S    1    1.000000
   4.44553000E+01    2.60801000E-01 
S    1    1.000000
   1.30290000E+01    6.16462000E-01 
S    1    1.000000
   1.82773000E+00    2.21006000E-01 
SP   3    1.000000
   2.09642000E+01    1.14660000E-01   4.02487000E-02 
   4.80331000E+00    9.19999000E-01   2.37594000E-01 
   1.45933000E+00   -3.03068000E-03   8.15854000E-01 
SP   1    1.000000
   4.83456000E-01    1.00000000E+00   1.00000000E+00 
SP   1    1.000000
   1.45585000E-01    1.00000000E+00   1.00000000E+00 
SP   1    1.000000
   4.38000000E-02    1.00000000E+00   1.00000000E+00 
SP   1    1.000000
   1.31927711E-02    1.00000000E+00   1.00000000E+00 
D    1    1.000000
   6.26000000E-01    1.00000000E+00 

3    0
S    1    1.000000
   4.56324000E+03    1.96665000E-03 
S    1    1.000000
   6.82024000E+02    1.52306000E-02 
S    1    1.000000
   1.54973000E+02    7.61269000E-02 
S    1    1.000000
   4.44553000E+01    2.60801000E-01 
S    1    1.000000
   1.30290000E+01    6.16462000E-01 
S    1    1.000000
   1.82773000E+00    2.21006000E-01 
SP   3    1.000000
   2.09642000E+01    1.14660000E-01   4.02487000E-02 
   4.80331000E+00    9.19999000E-01   2.37594000E-01 
   1.45933000E+00   -3.03068000E-03   8.15854000E-01 
SP   1    1.000000
   4.83456000E-01    1.00000000E+00   1.00000000E+00 
SP   1    1.000000
   1.45585000E-01    1.00000000E+00   1.00000000E+00 
SP   1    1.000000
   4.38000000E-02    1.00000000E+00   1.00000000E+00 
SP   1    1.000000
   1.31927711E-02    1.00000000E+00   1.00000000E+00 
D    1    1.000000
   6.26000000E-01    1.00000000E+00 

4    0
S    3    1.000000
   3.38650000E+01    2.54938000E-02 
   5.09479000E+00    1.90373000E-01 
   1.15879000E+00    8.52161000E-01 
S    1    1.000000
   3.25840000E-01    1.00000000E+00 
S    1    1.000000
   1.02741000E-01    1.00000000E+00 
S    1    1.000000
   3.60000000E-02    1.00000000E+00 
P    1    1.000000
   7.50000000E-01    1.00000000E+00 

5    0
S    1    1.000000
   4.56324000E+03    1.96665000E-03 
S    1    1.000000
   6.82024000E+02    1.52306000E-02 
S    1    1.000000
   1.54973000E+02    7.61269000E-02 
S    1    1.000000
   4.44553000E+01    2.60801000E-01 
S    1    1.000000
   1.30290000E+01    6.16462000E-01 
S    1    1.000000
   1.82773000E+00    2.21006000E-01 
SP   3    1.000000
   2.09642000E+01    1.14660000E-01   4.02487000E-02 
   4.80331000E+00    9.19999000E-01   2.37594000E-01 
   1.45933000E+00   -3.03068000E-03   8.15854000E-01 
SP   1    1.000000
   4.83456000E-01    1.00000000E+00   1.00000000E+00 
SP   1    1.000000
   1.45585000E-01    1.00000000E+00   1.00000000E+00 
SP   1    1.000000
   4.38000000E-02    1.00000000E+00   1.00000000E+00 
SP   1    1.000000
   1.31927711E-02    1.00000000E+00   1.00000000E+00 
D    1    1.000000
   6.26000000E-01    1.00000000E+00 

6    0
S    3    1.000000
   3.38650000E+01    2.54938000E-02 
   5.09479000E+00    1.90373000E-01 
   1.15879000E+00    8.52161000E-01 
S    1    1.000000
   3.25840000E-01    1.00000000E+00 
S    1    1.000000
   1.02741000E-01    1.00000000E+00 
S    1    1.000000
   3.60000000E-02    1.00000000E+00 
P    1    1.000000
   7.50000000E-01    1.00000000E+00 

7    0
S    1    1.000000
   4.56324000E+03    1.96665000E-03 
S    1    1.000000
   6.82024000E+02    1.52306000E-02 
S    1    1.000000
   1.54973000E+02    7.61269000E-02 
S    1    1.000000
   4.44553000E+01    2.60801000E-01 
S    1    1.000000
   1.30290000E+01    6.16462000E-01 
S    1    1.000000
   1.82773000E+00    2.21006000E-01 
SP   3    1.000000
   2.09642000E+01    1.14660000E-01   4.02487000E-02 
   4.80331000E+00    9.19999000E-01   2.37594000E-01 
   1.45933000E+00   -3.03068000E-03   8.15854000E-01 
SP   1    1.000000
   4.83456000E-01    1.00000000E+00   1.00000000E+00 
SP   1    1.000000
   1.45585000E-01    1.00000000E+00   1.00000000E+00 
SP   1    1.000000
   4.38000000E-02    1.00000000E+00   1.00000000E+00 
SP   1    1.000000
   1.31927711E-02    1.00000000E+00   1.00000000E+00 
D    1    1.000000
   6.26000000E-01    1.00000000E+00 

8    0
S    3    1.000000
   3.38650000E+01    2.54938000E-02 
   5.09479000E+00    1.90373000E-01 
   1.15879000E+00    8.52161000E-01 
S    1    1.000000
   3.25840000E-01    1.00000000E+00 
S    1    1.000000
   1.02741000E-01    1.00000000E+00 
S    1    1.000000
   3.60000000E-02    1.00000000E+00 
P    1    1.000000
   7.50000000E-01    1.00000000E+00 

9    0
S    1    1.000000
   4.56324000E+03    1.96665000E-03 
S    1    1.000000
   6.82024000E+02    1.52306000E-02 
S    1    1.000000
   1.54973000E+02    7.61269000E-02 
S    1    1.000000
   4.44553000E+01    2.60801000E-01 
S    1    1.000000
   1.30290000E+01    6.16462000E-01 
S    1    1.000000
   1.82773000E+00    2.21006000E-01 
SP   3    1.000000
   2.09642000E+01    1.14660000E-01   4.02487000E-02 
   4.80331000E+00    9.19999000E-01   2.37594000E-01 
   1.45933000E+00   -3.03068000E-03   8.15854000E-01 
SP   1    1.000000
   4.83456000E-01    1.00000000E+00   1.00000000E+00 
SP   1    1.000000
   1.45585000E-01    1.00000000E+00   1.00000000E+00 
SP   1    1.000000
   4.38000000E-02    1.00000000E+00   1.00000000E+00 
SP   1    1.000000
   1.31927711E-02    1.00000000E+00   1.00000000E+00 
D    1    1.000000
   6.26000000E-01    1.00000000E+00 

10    0
S    3    1.000000
   3.38650000E+01    2.54938000E-02 
   5.09479000E+00    1.90373000E-01 
   1.15879000E+00    8.52161000E-01 
S    1    1.000000
   3.25840000E-01    1.00000000E+00 
S    1    1.000000
   1.02741000E-01    1.00000000E+00 
S    1    1.000000
   3.60000000E-02    1.00000000E+00 
P    1    1.000000
   7.50000000E-01    1.00000000E+00 

11    0
S    1    1.000000
   4.56324000E+03    1.96665000E-03 
S    1    1.000000
   6.82024000E+02    1.52306000E-02 
S    1    1.000000
   1.54973000E+02    7.61269000E-02 
S    1    1.000000
   4.44553000E+01    2.60801000E-01 
S    1    1.000000
   1.30290000E+01    6.16462000E-01 
S    1    1.000000
   1.82773000E+00    2.21006000E-01 
SP   3    1.000000
   2.09642000E+01    1.14660000E-01   4.02487000E-02 
   4.80331000E+00    9.19999000E-01   2.37594000E-01 
   1.45933000E+00   -3.03068000E-03   8.15854000E-01 
SP   1    1.000000
   4.83456000E-01    1.00000000E+00   1.00000000E+00 
SP   1    1.000000
   1.45585000E-01    1.00000000E+00   1.00000000E+00 
SP   1    1.000000
   4.38000000E-02    1.00000000E+00   1.00000000E+00 
SP   1    1.000000
   1.31927711E-02    1.00000000E+00   1.00000000E+00 
D    1    1.000000
   6.26000000E-01    1.00000000E+00 

12    0
S    6    1.000000
   4.39700000E+05    8.13000000E-04 
   6.60300000E+04    6.28500000E-03 
   1.51400000E+04    3.19200000E-02 
   4.31700000E+03    1.28800000E-01 
   1.41400000E+03    3.94600000E-01 
   5.23900000E+02    5.41300000E-01 
S    3    1.000000
   5.23900000E+02    1.83100000E-01 
   2.07700000E+02    6.17600000E-01 
   8.65400000E+01    2.53800000E-01 
S    1    1.000000
   3.05200000E+01    1.00000000E+00 
S    1    1.000000
   1.29800000E+01    1.00000000E+00 
S    1    1.000000
   4.41200000E+00    1.00000000E+00 
S    1    1.000000
   1.86200000E+00    1.00000000E+00 
S    1    1.000000
   3.93200000E-01    1.00000000E+00 
S    1    1.000000
   1.40000000E-01    1.00000000E+00 
P    3    1.000000
   2.95700000E+03    2.22600000E-02 
   7.00300000E+02    1.80200000E-01 
   2.24600000E+02    8.62400000E-01 
P    3    1.000000
   8.25900000E+01    3.44000000E-01 
   3.31900000E+01    5.07100000E-01 
   1.42000000E+01    2.59000000E-01 
P    3    1.000000
   1.42000000E+01    7.96500000E-02 
   7.43800000E+00    3.73400000E-01 
   3.52600000E+00    6.04900000E-01 
P    1    1.000000
   1.59500000E+00    1.00000000E+00 
P    1    1.000000
   8.46200000E-01    1.00000000E+00 
P    1    1.000000
   3.18600000E-01    1.00000000E+00 
P    1    1.000000
   1.09600000E-01    1.00000000E+00 
D    4    1.000000
   1.34800000E+02    1.83100000E-02 
   3.63900000E+01    1.35000000E-01 
   1.21600000E+01    4.26100000E-01 
   4.34100000E+00    6.04300000E-01 
D    1    1.000000
   1.53500000E+00    1.00000000E+00 
SP   1    1.000000
   3.90000000E-02    1.00000000E+00   1.00000000E+00 
SP   1    1.000000
   1.17469880E-02    1.00000000E+00   1.00000000E+00 
D    1    1.000000
   4.15000000E-01    1.00000000E+00 

[MO]
Sym=X
Ene= -0.811739
Spin=Alpha
Occup=1
     1   -3.862253658127e-05
     2   -9.623632199096e-05
     3    2.976283354867e-04
     4    2.379759106624e-04
     5   -9.218174089602e-05
     6    2.375476037712e-17
     7   -1.103694170108e-06
     8   -1.388989921199e-05
     9   -1.074407262087e-04
    10   -5.364891915124e-04
    11   -1.839181897141e-03
    12   -4.364385022363e-03
    13   -1.583955554093e-03
    14   -5.735844906393e-03
    15   -1.142742884023e-04
    16   -1.395902229798e-15
    17   -3.989919520901e-05
    18   -3.645599833549e-04
    19   -4.323237298988e-04
    20    1.144888019631e-15
    21   -3.286646787394e-04
    22    7.543441534799e-04
    23    6.108353557243e-04
    24   -8.602952859854e-15
    25    1.711018144338e-04
    26    6.386125701168e-04
    27   -1.135037834447e-04
    28    4.510331174286e-14
    29   -1.028763331649e-03
    30    2.389411062357e-04
    31    1.869578594889e-04
    32   -2.373741712717e-13
    33    7.256355386909e-04
    34    1.369534511967e-04
    35   -2.901158402887e-04
    36    1.700704971587e-16
    37   -6.410910435806e-05
    38   -4.484357412725e-16
    39   -7.295203095705e-08
    40   -6.183742247587e-07
    41   -2.697218118522e-06
    42   -1.075465085819e-05
    43   -1.102280517932e-05
    44    5.543679914265e-05
    45   -6.551058593993e-05
    46    9.448983329812e-06
    47   -5.867641788809e-16
    48    3.017265831060e-05
    49   -1.120374610918e-04
    50   -5.026509156407e-05
    51   -5.125189478682e-15
    52   -2.158411190398e-04
    53   -3.746497944244e-04
    54   -4.224551096059e-04
    55    4.092925491021e-15
    56    5.893805543159e-05
    57   -6.716267486361e-04
    58    3.819423665684e-04
    59   -4.810642611062e-14
    60   -4.501262287959e-04
    61    7.334247169927e-05
    62   -1.475204265195e-04
    63    2.166160705390e-13
    64   -3.396195043490e-04
    65   -8.230968834966e-05
    66   -5.358038088076e-05
    67    5.710237439679e-16
    68    3.737433652351e-05
    69   -9.457737009090e-16
    70    5.959109038209e-07
    71   -1.164581084002e-04
    72   -1.671648666995e-05
    73    1.648800822867e-05
    74   -9.757698516149e-06
    75   -7.754345255096e-16
    76   -3.114074146910e-05
    77    2.097154199854e-07
    78    1.570260529481e-06
    79    8.217808650238e-06
    80    2.671764774616e-05
    81    7.713399310297e-05
    82    8.441312021307e-05
    83    5.406787074110e-05
    84    1.760712166611e-14
    85   -2.858024553673e-15
    86    8.749830115050e-06
    87   -1.512121027706e-04
    88    1.931070733890e-14
    89   -3.015122833452e-15
    90   -6.186073543832e-05
    91    8.996358485475e-04
    92   -6.639837760699e-13
    93   -8.542264388179e-15
    94    4.104534018763e-04
    95   -1.557843986488e-03
    96   -4.527383244182e-11
    97    3.466545120711e-14
    98   -2.088421450544e-05
    99   -8.534655576334e-05
   100   -1.304847965449e-12
   101   -1.763329248471e-13
   102    2.284183228432e-04
   103    2.640343362553e-05
   104   -4.222134111248e-15
   105   -2.543595008634e-16
   106   -1.664548134728e-05
   107    9.009199579981e-16
   108   -1.124634287974e-05
   109   -7.239910950377e-06
   110    1.630956649064e-04
   111    5.773980492789e-05
   112    3.029245146247e-14
   113   -1.035485219006e-15
   114   -1.383208457252e-05
   115   -7.295203269770e-08
   116   -6.183742397312e-07
   117   -2.697218192210e-06
   118   -1.075465110189e-05
   119   -1.102280577200e-05
   120    5.543679897144e-05
   121   -6.551058672182e-05
   122   -9.448983379121e-06
   123    6.333617407556e-16
   124    3.017265832680e-05
   125   -1.120374613615e-04
   126    5.026509156781e-05
   127   -6.965207710555e-16
   128   -2.158411190290e-04
   129   -3.746497932069e-04
   130    4.224551090965e-04
   131    6.762391732221e-16
   132    5.893805477226e-05
   133   -6.716269064871e-04
   134   -3.819424422846e-04
   135   -2.672246541775e-14
   136   -4.501263562448e-04
   137    7.334245888474e-05
   138    1.475204271611e-04
   139    1.566292776329e-13
   140   -3.396195106215e-04
   141   -8.230968831852e-05
   142    5.358038087155e-05
   143    4.997471076962e-16
   144    3.737433658884e-05
   145    1.117147733974e-15
   146    5.959109274531e-07
   147   -1.164581085585e-04
   148   -1.671648584775e-05
   149    1.648800128074e-05
   150    9.757698573911e-06
   151    1.696127967859e-16
   152   -3.114074146500e-05
   153   -1.388989921310e-05
   154   -1.074407262148e-04
   155   -5.364891915556e-04
   156   -1.839181897264e-03
   157   -4.364385022719e-03
   158   -1.583955554208e-03
   159   -5.735844906827e-03
   160    1.142742883235e-04
   161    5.009235399647e-16
   162   -3.989919524768e-05
   163   -3.645599833091e-04
   164    4.323237298784e-04
   165    7.061894371657e-16
   166   -3.286646787558e-04
   167    7.543441547421e-04
   168   -6.108353568271e-04
   169   -6.742391455798e-16
   170    1.711018139018e-04
   171    6.386122433028e-04
   172    1.135039596681e-04
   173    2.574066633724e-14
   174   -1.028763567596e-03
   175    2.389411134131e-04
   176   -1.869578617116e-04
   177   -1.782577398287e-13
   178    7.256355405660e-04
   179    1.369534511839e-04
   180    2.901158402890e-04
   181   -4.426733151723e-16
   182   -6.410910430280e-05
   183    1.100046667408e-15
   184   -3.862253655949e-05
   185   -9.623632182033e-05
   186    2.976283369242e-04
   187    2.379758844663e-04
   188    9.218174095996e-05
   189    1.813393014052e-16
   190   -1.103694187221e-06
   191   -1.109230486198e-03
   192   -8.587524179924e-03
   193   -4.283631147943e-02
   194   -1.470795023613e-01
   195   -3.473817855866e-01
   196   -1.263736505830e-01
   197   -4.654262523129e-01
   198    2.286314658699e-14
   199   -3.642681554032e-15
   200   -1.116456593279e-03
   201   -1.897927274681e-03
   202    8.508340456483e-14
   203    5.697502326115e-17
   204    7.597236575805e-04
   205   -1.967956440676e-03
   206   -3.589882526640e-13
   207   -1.845998934673e-15
   208    1.310449176263e-04
   209    1.909569051891e-03
   210    2.013476632010e-10
   211   -3.200315216888e-14
   212    1.477191106965e-03
   213    1.936787483696e-04
   214    9.955368644947e-12
   215    2.374622282429e-13
   216   -9.182623314880e-04
   217    5.916481609522e-05
   218   -1.875402085222e-14
   219    4.394428708772e-16
   220   -2.378976125813e-04
   221    3.918294361128e-16
   222   -8.103578092882e-07
   223   -1.636489620976e-06
   224   -4.746873338901e-06
   225    3.599082344552e-05
   226   -8.968205649293e-05
   227    1.656131719526e-04
   228   -1.314597404285e-04
   229   -1.899527445918e-04
   230   -1.532449144810e-15
   231   -4.310968644220e-16
   232    2.964674153602e-06
   233   -1.751739045646e-14
   234   -5.553006886152e-15
   235    2.315065156377e-05
   236    3.331875268658e-14
   237    9.761978785102e-15
   238   -5.685812264258e-05
   239    7.879516720564e-14
   240    2.438996675223e-15
   241   -6.475403656812e-05
   242   -1.943573808779e-13
   243    5.133162705473e-15
   244   -4.446467057623e-06
   245    4.208088430939e-13
   246   -2.746744641004e-15
   247    4.715554488609e-04
   248   -2.626081757488e-12
   249    9.886930393197e-15
   250   -1.232190886382e-04
   251   -1.833424539834e-06
   252   -1.128584272078e-14
   253    6.262657058100e-16
   254   -5.842740012458e-08
   255    2.852983018995e-16
   256    4.063915208023e-05
   257   -3.783856480387e-15
   258    5.340729053230e-16
   259   -3.165277796571e-07
   260   -5.885409595064e-17
   261   -1.274691288003e-03
   262   -3.567701630345e-13
   263   -7.439464744691e-15
   264    4.342356191290e-04
   265   -5.964196072452e-04
   266   -3.229170790852e-12
   267   -3.193522221047e-15
   268    2.209441040131e-04
   269   -2.714880517993e-04
   270    4.305643870150e-14
   271    6.946923316869e-16
   272    1.212298673630e-06
   273    3.554374396357e-16
Sym=X
Ene= 0.811739
Spin=Alpha
Occup=0
     1    2.048669146232e-02
     2    5.015616919221e-02
     3    1.547442874727e-01
     4    2.365086214748e-01
     5   -3.337230938403e-03
     6    5.178826690950e-15
     7    5.729253995504e-03
     8   -1.735497331964e-06
     9   -1.377104651389e-05
    10   -6.785248631914e-05
    11   -2.417163657336e-04
    12   -4.336340930208e-04
    13    9.286452269634e-05
    14   -1.770248854155e-03
    15    2.978405990636e-02
    16   -7.674313969597e-14
    17    4.801138968021e-03
    18   -7.854611819044e-04
    19    4.596200160510e-02
    20   -3.730989650340e-13
    21    7.425457256056e-03
    22   -3.088296378705e-02
    23    5.132259991954e-02
    24    4.515667069484e-13
    25    6.031446859774e-03
    26    5.120473159004e-01
    27    1.798694801244e-01
    28   -8.680117481601e-13
    29   -2.127639668405e-01
    30   -1.417669041302e-03
    31    1.950021770992e-02
    32    1.625861142412e-10
    33    6.493591539291e-02
    34   -2.121816369296e-02
    35   -1.889053233358e-02
    36   -7.174954926445e-14
    37    1.774114962919e-02
    38   -9.351254862640e-14
    39    1.671086773024e-05
    40    1.257430461713e-04
    41    6.708298038033e-04
    42    2.170034244122e-03
    43    5.472865132995e-03
    44    2.689357194100e-03
    45    1.410989558251e-02
    46    1.488322895234e-03
    47    1.320642686538e-13
    48   -2.350102485428e-02
    49   -4.845660619827e-02
    50   -2.648375097963e-03
    51    1.739734862896e-13
    52   -3.537203834250e-02
    53   -5.643716464510e-02
    54    5.563957665473e-02
    55    4.900123452020e-13
    56   -3.520524493908e-02
    57    6.488737029500e-01
    58    4.158885981118e-01
    59    6.030579550288e-12
    60    5.789390054564e-02
    61   -2.651625534201e-02
    62    3.152526612058e-03
    63   -2.680170043552e-10
    64   -9.778167741497e-03
    65    2.145340911765e-03
    66    8.062132249547e-03
    67    4.192627581483e-14
    68    3.150414168029e-03
    69   -8.374809327805e-14
    70    1.240759039404e-02
    71    3.525588743311e-02
    72    1.016475457627e-01
    73    2.573809225675e-01
    74   -2.229657725976e-04
    75    2.925937068189e-14
    76   -1.743346845421e-03
    77    7.917783112995e-06
    78    5.926725577474e-05
    79    3.184860855470e-04
    80    1.021977706625e-03
    81    2.675812995180e-03
    82    1.769573653446e-03
    83    6.414329883564e-03
    84   -3.673863141967e-10
    85   -5.016629254132e-13
    86   -4.415460012275e-03
    87   -2.389352359184e-02
    88   -7.911115268335e-10
    89   -1.019895359782e-12
    90   -1.051594024017e-02
    91   -9.502014288716e-02
    92    7.873271279448e-09
    93   -7.699515984589e-13
    94   -2.915434224607e-02
    95   -1.735769249502e+00
    96    8.555790907629e-07
    97   -1.034899238569e-11
    98   -4.883404512297e-01
    99   -2.414981871998e-01
   100    3.655716530527e-08
   101    2.888549506710e-10
   102   -6.578547659625e-02
   103    3.960350294380e-04
   104    2.759358695035e-10
   105    1.595060107010e-14
   106    2.380610205489e-03
   107   -4.569774823390e-15
   108    2.251533771836e-04
   109   -8.967882962561e-04
   110   -6.530144358382e-03
   111   -1.879168726405e-01
   112   -2.757172462742e-10
   113   -6.414046481727e-14
   114   -9.344292007190e-04
   115    1.671086686017e-05
   116    1.257430400909e-04
   117    6.708297678500e-04
   118    2.170034139956e-03
   119    5.472864719250e-03
   120    2.689356226239e-03
   121    1.410989522591e-02
   122   -1.488321787869e-03
   123    7.010927058814e-14
   124   -2.350102512200e-02
   125   -4.845659914664e-02
   126    2.648376010971e-03
   127    1.323483747177e-13
   128   -3.537203784981e-02
   129   -5.643719749456e-02
   130   -5.563957222402e-02
   131    8.814711524177e-14
   132   -3.520524647265e-02
   133    6.488766608197e-01
   134   -4.158872780971e-01
   135    9.190877845155e-12
   136    5.789629741595e-02
   137   -2.651603212250e-02
   138   -3.152570976992e-03
   139   -2.714495793374e-10
   140   -9.778054980613e-03
   141    2.145340385410e-03
   142   -8.062132189563e-03
   143    2.622274550311e-14
   144    3.150413211139e-03
   145    1.105361421245e-13
   146    1.240758989585e-02
   147    3.525588942317e-02
   148    1.016475320839e-01
   149    2.573810838119e-01
   150    2.229649986946e-04
   151    4.985047226591e-14
   152   -1.743346506553e-03
   153   -1.735496541902e-06
   154   -1.377104043511e-05
   155   -6.785245492094e-05
   156   -2.417162606788e-04
   157   -4.336338740099e-04
   158    9.286442941758e-05
   159   -1.770248052086e-03
   160   -2.978405875003e-02
   161   -5.038386154605e-14
   162    4.801139191043e-03
   163   -7.854629375282e-04
   164   -4.596200192657e-02
   165   -3.112330288377e-13
   166    7.425457129641e-03
   167   -3.088297938418e-02
   168   -5.132257565083e-02
   169    6.578523048692e-13
   170    6.031440734237e-03
   171    5.120522288158e-01
   172   -1.798724643516e-01
   173   -3.613746629190e-12
   174   -2.127597879041e-01
   175   -1.417789196395e-03
   176   -1.950014417570e-02
   177    1.654564898630e-10
   178    6.493587791593e-02
   179   -2.121816334880e-02
   180    1.889053254751e-02
   181   -4.803561399591e-14
   182    1.774114882966e-02
   183    1.097689474533e-13
   184    2.048669099649e-02
   185    5.015616623482e-02
   186    1.547442662936e-01
   187    2.365090479285e-01
   188    3.337230322469e-03
   189    2.637444673723e-14
   190    5.729254796802e-03
   191    1.038299206519e-04
   192    7.734189295237e-04
   193    4.177717077783e-03
   194    1.286810668931e-02
   195    3.211109342204e-02
   196    1.889037716411e-03
   197    9.849519619576e-02
   198   -3.893043587664e-10
   199   -5.047069934768e-13
   200   -2.732866030777e-01
   201   -3.066545146707e-01
   202   -9.116236200017e-10
   203   -1.159666921740e-12
   204   -3.661486948433e-01
   205   -6.095092853248e-01
   206    9.690906320754e-09
   207   -2.825103695144e-13
   208   -4.442328728116e-01
   209   -1.684845869793e+00
   210   -3.377231467635e-06
   211   -7.709189664229e-12
   212    5.798212138804e-01
   213   -2.195775405207e-01
   214   -1.979046484087e-07
   215   -1.956989803584e-11
   216   -3.473357649250e-01
   217    2.997194524283e-02
   218    3.801731702172e-10
   219   -8.438273415925e-15
   220   -1.968883747020e-03
   221   -3.145302485621e-16
   222   -3.968059944515e-03
   223   -1.290918320988e-02
   224    3.488473948489e-02
   225    4.395302713163e-02
   226   -8.790724177443e-02
   227   -1.149173729374e-01
   228    2.039462646187e-01
   229    4.245866510542e-01
   230    1.119895555650e-11
   231   -1.689834931439e-14
   232   -7.846818885027e-03
   233    7.631451852906e-11
   234   -1.409883977056e-13
   235   -6.550213694448e-02
   236   -8.459138641836e-11
   237    3.700306590005e-13
   238    1.721156891636e-01
   239   -1.523908569245e-09
   240    9.724434776550e-14
   241    6.826042434613e-02
   242    3.573068348159e-09
   243   -1.819331593215e-13
   244   -1.416665434950e-01
   245   -7.438529195091e-09
   246   -1.100662483359e-12
   247   -4.015895774317e-01
   248    4.030928260655e-08
   249    4.480883537589e-13
   250   -6.220868048265e-01
   251    5.437658252423e-02
   252    6.669446766119e-10
   253   -5.321468344394e-14
   254   -1.630774138692e-03
   255    5.341325356901e-14
   256    3.669962940653e-03
   257    8.504396626360e-11
   258   -1.423306623881e-14
   259   -4.010335778943e-04
   260   -1.066970194721e-14
   261    2.607094406848e-01
   262   -4.861410483142e-09
   263   -1.966272802357e-12
   264   -2.764656253366e-01
   265    4.146923428356e-01
   266    6.184558485691e-08
   267   -4.974973742234e-11
   268   -4.872054436974e-02
   269   -8.045943764838e-02
   270   -1.772926774918e-09
   271    1.375108504179e-13
   272    4.721119165109e-03
   273   -2.851010689855e-14
[5D]
