[Molden Format]
[Atoms] (Angs)
  H      1    1     -2.14344049      0.00000000     -0.22359064
  C      2    6     -1.21326725     -0.00000000     -0.77278636
  C      3    6     -1.20502948     -0.00000000     -2.16587022
  H      4    1     -2.14438543     -0.00000000     -2.70149179
  C      5    6      0.00000000     -0.00000000     -2.86507761
  H      6    1      0.00000000     -0.00000000     -3.94588772
  C      7    6      1.20502948     -0.00000000     -2.16587022
  H      8    1      2.14438543     -0.00000000     -2.70149179
  C      9    6      1.21326725     -0.00000000     -0.77278636
  H     10    1      2.14344049     -0.00000000     -0.22359064
  C     11    6     -0.00000000     -0.00000000     -0.08999076
 Br     12   35     -0.00000000      0.00000000      1.79400976
[GTO]
1    0
S    3    1.000000
   3.38650000E+01    2.54938000E-02 
   5.09479000E+00    1.90373000E-01 
   1.15879000E+00    8.52161000E-01 
S    1    1.000000
   3.25840000E-01    1.00000000E+00 
S    1    1.000000
   1.02741000E-01    1.00000000E+00 
S    1    1.000000
   3.60000000E-02    1.00000000E+00 
P    1    1.000000
   7.50000000E-01    1.00000000E+00 

2    0
S    1    1.000000
   4.56324000E+03    1.96665000E-03 
S    1    1.000000
   6.82024000E+02    1.52306000E-02 
S    1    1.000000
   1.54973000E+02    7.61269000E-02 
S    1    1.000000
   4.44553000E+01    2.60801000E-01 
S    1    1.000000
   1.30290000E+01    6.16462000E-01 
S    1    1.000000
   1.82773000E+00    2.21006000E-01 
SP   3    1.000000
   2.09642000E+01    1.14660000E-01   4.02487000E-02 
   4.80331000E+00    9.19999000E-01   2.37594000E-01 
   1.45933000E+00   -3.03068000E-03   8.15854000E-01 
SP   1    1.000000
   4.83456000E-01    1.00000000E+00   1.00000000E+00 
SP   1    1.000000
   1.45585000E-01    1.00000000E+00   1.00000000E+00 
SP   1    1.000000
   4.38000000E-02    1.00000000E+00   1.00000000E+00 
SP   1    1.000000
   1.31927711E-02    1.00000000E+00   1.00000000E+00 
D    1    1.000000
   6.26000000E-01    1.00000000E+00 

3    0
S    1    1.000000
   4.56324000E+03    1.96665000E-03 
S    1    1.000000
   6.82024000E+02    1.52306000E-02 
S    1    1.000000
   1.54973000E+02    7.61269000E-02 
S    1    1.000000
   4.44553000E+01    2.60801000E-01 
S    1    1.000000
   1.30290000E+01    6.16462000E-01 
S    1    1.000000
   1.82773000E+00    2.21006000E-01 
SP   3    1.000000
   2.09642000E+01    1.14660000E-01   4.02487000E-02 
   4.80331000E+00    9.19999000E-01   2.37594000E-01 
   1.45933000E+00   -3.03068000E-03   8.15854000E-01 
SP   1    1.000000
   4.83456000E-01    1.00000000E+00   1.00000000E+00 
SP   1    1.000000
   1.45585000E-01    1.00000000E+00   1.00000000E+00 
SP   1    1.000000
   4.38000000E-02    1.00000000E+00   1.00000000E+00 
SP   1    1.000000
   1.31927711E-02    1.00000000E+00   1.00000000E+00 
D    1    1.000000
   6.26000000E-01    1.00000000E+00 

4    0
S    3    1.000000
   3.38650000E+01    2.54938000E-02 
   5.09479000E+00    1.90373000E-01 
   1.15879000E+00    8.52161000E-01 
S    1    1.000000
   3.25840000E-01    1.00000000E+00 
S    1    1.000000
   1.02741000E-01    1.00000000E+00 
S    1    1.000000
   3.60000000E-02    1.00000000E+00 
P    1    1.000000
   7.50000000E-01    1.00000000E+00 

5    0
S    1    1.000000
   4.56324000E+03    1.96665000E-03 
S    1    1.000000
   6.82024000E+02    1.52306000E-02 
S    1    1.000000
   1.54973000E+02    7.61269000E-02 
S    1    1.000000
   4.44553000E+01    2.60801000E-01 
S    1    1.000000
   1.30290000E+01    6.16462000E-01 
S    1    1.000000
   1.82773000E+00    2.21006000E-01 
SP   3    1.000000
   2.09642000E+01    1.14660000E-01   4.02487000E-02 
   4.80331000E+00    9.19999000E-01   2.37594000E-01 
   1.45933000E+00   -3.03068000E-03   8.15854000E-01 
SP   1    1.000000
   4.83456000E-01    1.00000000E+00   1.00000000E+00 
SP   1    1.000000
   1.45585000E-01    1.00000000E+00   1.00000000E+00 
SP   1    1.000000
   4.38000000E-02    1.00000000E+00   1.00000000E+00 
SP   1    1.000000
   1.31927711E-02    1.00000000E+00   1.00000000E+00 
D    1    1.000000
   6.26000000E-01    1.00000000E+00 

6    0
S    3    1.000000
   3.38650000E+01    2.54938000E-02 
   5.09479000E+00    1.90373000E-01 
   1.15879000E+00    8.52161000E-01 
S    1    1.000000
   3.25840000E-01    1.00000000E+00 
S    1    1.000000
   1.02741000E-01    1.00000000E+00 
S    1    1.000000
   3.60000000E-02    1.00000000E+00 
P    1    1.000000
   7.50000000E-01    1.00000000E+00 

7    0
S    1    1.000000
   4.56324000E+03    1.96665000E-03 
S    1    1.000000
   6.82024000E+02    1.52306000E-02 
S    1    1.000000
   1.54973000E+02    7.61269000E-02 
S    1    1.000000
   4.44553000E+01    2.60801000E-01 
S    1    1.000000
   1.30290000E+01    6.16462000E-01 
S    1    1.000000
   1.82773000E+00    2.21006000E-01 
SP   3    1.000000
   2.09642000E+01    1.14660000E-01   4.02487000E-02 
   4.80331000E+00    9.19999000E-01   2.37594000E-01 
   1.45933000E+00   -3.03068000E-03   8.15854000E-01 
SP   1    1.000000
   4.83456000E-01    1.00000000E+00   1.00000000E+00 
SP   1    1.000000
   1.45585000E-01    1.00000000E+00   1.00000000E+00 
SP   1    1.000000
   4.38000000E-02    1.00000000E+00   1.00000000E+00 
SP   1    1.000000
   1.31927711E-02    1.00000000E+00   1.00000000E+00 
D    1    1.000000
   6.26000000E-01    1.00000000E+00 

8    0
S    3    1.000000
   3.38650000E+01    2.54938000E-02 
   5.09479000E+00    1.90373000E-01 
   1.15879000E+00    8.52161000E-01 
S    1    1.000000
   3.25840000E-01    1.00000000E+00 
S    1    1.000000
   1.02741000E-01    1.00000000E+00 
S    1    1.000000
   3.60000000E-02    1.00000000E+00 
P    1    1.000000
   7.50000000E-01    1.00000000E+00 

9    0
S    1    1.000000
   4.56324000E+03    1.96665000E-03 
S    1    1.000000
   6.82024000E+02    1.52306000E-02 
S    1    1.000000
   1.54973000E+02    7.61269000E-02 
S    1    1.000000
   4.44553000E+01    2.60801000E-01 
S    1    1.000000
   1.30290000E+01    6.16462000E-01 
S    1    1.000000
   1.82773000E+00    2.21006000E-01 
SP   3    1.000000
   2.09642000E+01    1.14660000E-01   4.02487000E-02 
   4.80331000E+00    9.19999000E-01   2.37594000E-01 
   1.45933000E+00   -3.03068000E-03   8.15854000E-01 
SP   1    1.000000
   4.83456000E-01    1.00000000E+00   1.00000000E+00 
SP   1    1.000000
   1.45585000E-01    1.00000000E+00   1.00000000E+00 
SP   1    1.000000
   4.38000000E-02    1.00000000E+00   1.00000000E+00 
SP   1    1.000000
   1.31927711E-02    1.00000000E+00   1.00000000E+00 
D    1    1.000000
   6.26000000E-01    1.00000000E+00 

10    0
S    3    1.000000
   3.38650000E+01    2.54938000E-02 
   5.09479000E+00    1.90373000E-01 
   1.15879000E+00    8.52161000E-01 
S    1    1.000000
   3.25840000E-01    1.00000000E+00 
S    1    1.000000
   1.02741000E-01    1.00000000E+00 
S    1    1.000000
   3.60000000E-02    1.00000000E+00 
P    1    1.000000
   7.50000000E-01    1.00000000E+00 

11    0
S    1    1.000000
   4.56324000E+03    1.96665000E-03 
S    1    1.000000
   6.82024000E+02    1.52306000E-02 
S    1    1.000000
   1.54973000E+02    7.61269000E-02 
S    1    1.000000
   4.44553000E+01    2.60801000E-01 
S    1    1.000000
   1.30290000E+01    6.16462000E-01 
S    1    1.000000
   1.82773000E+00    2.21006000E-01 
SP   3    1.000000
   2.09642000E+01    1.14660000E-01   4.02487000E-02 
   4.80331000E+00    9.19999000E-01   2.37594000E-01 
   1.45933000E+00   -3.03068000E-03   8.15854000E-01 
SP   1    1.000000
   4.83456000E-01    1.00000000E+00   1.00000000E+00 
SP   1    1.000000
   1.45585000E-01    1.00000000E+00   1.00000000E+00 
SP   1    1.000000
   4.38000000E-02    1.00000000E+00   1.00000000E+00 
SP   1    1.000000
   1.31927711E-02    1.00000000E+00   1.00000000E+00 
D    1    1.000000
   6.26000000E-01    1.00000000E+00 

12    0
S    6    1.000000
   4.39700000E+05    8.13000000E-04 
   6.60300000E+04    6.28500000E-03 
   1.51400000E+04    3.19200000E-02 
   4.31700000E+03    1.28800000E-01 
   1.41400000E+03    3.94600000E-01 
   5.23900000E+02    5.41300000E-01 
S    3    1.000000
   5.23900000E+02    1.83100000E-01 
   2.07700000E+02    6.17600000E-01 
   8.65400000E+01    2.53800000E-01 
S    1    1.000000
   3.05200000E+01    1.00000000E+00 
S    1    1.000000
   1.29800000E+01    1.00000000E+00 
S    1    1.000000
   4.41200000E+00    1.00000000E+00 
S    1    1.000000
   1.86200000E+00    1.00000000E+00 
S    1    1.000000
   3.93200000E-01    1.00000000E+00 
S    1    1.000000
   1.40000000E-01    1.00000000E+00 
P    3    1.000000
   2.95700000E+03    2.22600000E-02 
   7.00300000E+02    1.80200000E-01 
   2.24600000E+02    8.62400000E-01 
P    3    1.000000
   8.25900000E+01    3.44000000E-01 
   3.31900000E+01    5.07100000E-01 
   1.42000000E+01    2.59000000E-01 
P    3    1.000000
   1.42000000E+01    7.96500000E-02 
   7.43800000E+00    3.73400000E-01 
   3.52600000E+00    6.04900000E-01 
P    1    1.000000
   1.59500000E+00    1.00000000E+00 
P    1    1.000000
   8.46200000E-01    1.00000000E+00 
P    1    1.000000
   3.18600000E-01    1.00000000E+00 
P    1    1.000000
   1.09600000E-01    1.00000000E+00 
D    4    1.000000
   1.34800000E+02    1.83100000E-02 
   3.63900000E+01    1.35000000E-01 
   1.21600000E+01    4.26100000E-01 
   4.34100000E+00    6.04300000E-01 
D    1    1.000000
   1.53500000E+00    1.00000000E+00 
SP   1    1.000000
   3.90000000E-02    1.00000000E+00   1.00000000E+00 
SP   1    1.000000
   1.17469880E-02    1.00000000E+00   1.00000000E+00 
D    1    1.000000
   4.15000000E-01    1.00000000E+00 

[MO]
Sym=X
Ene= -0.798113
Spin=Alpha
Occup=1
     1    3.790442298533e-05
     2    9.504832215671e-05
     3   -2.983912008396e-04
     4   -2.393238206726e-04
     5    9.243788781765e-05
     6   -2.646011396390e-17
     7    9.003434113771e-07
     8    1.389145488178e-05
     9    1.074525134468e-04
    10    5.365514194456e-04
    11    1.839385766954e-03
    12    4.364878661624e-03
    13    1.584104181859e-03
    14    5.737186885142e-03
    15    1.115693936350e-04
    16    1.415146298933e-15
    17    4.210850856347e-05
    18    3.610775905654e-04
    19    4.282409872228e-04
    20   -1.076375488502e-15
    21    3.323702140695e-04
    22   -7.590951071153e-04
    23   -6.127620936627e-04
    24    8.579745377790e-15
    25   -1.680673053831e-04
    26   -6.458718183797e-04
    27    1.115048385761e-04
    28   -4.525889007474e-14
    29    1.031779026466e-03
    30   -2.399614142649e-04
    31   -1.878789426353e-04
    32    2.332304829413e-13
    33   -7.292924567207e-04
    34   -1.357049241720e-04
    35    2.916626030589e-04
    36   -1.695323351680e-16
    37    6.294848847727e-05
    38    4.538237849929e-16
    39    7.289098781974e-08
    40    6.177858261781e-07
    41    2.694648916801e-06
    42    1.074058228166e-05
    43    1.103113650808e-05
    44   -5.523450115391e-05
    45    6.527365620427e-05
    46   -1.042244957168e-05
    47    5.839540147684e-16
    48   -3.105157466750e-05
    49    1.137151498749e-04
    50    4.883731568996e-05
    51    5.156167585337e-15
    52    2.146417153192e-04
    53    3.759314450327e-04
    54    4.202550229596e-04
    55   -4.203788557537e-15
    56   -6.031662210879e-05
    57    6.642817326289e-04
    58   -3.861102407794e-04
    59    4.809691317758e-14
    60    4.491422863824e-04
    61   -7.354632170275e-05
    62    1.481366207776e-04
    63   -2.095271928951e-13
    64    3.410650479337e-04
    65    8.197319051979e-05
    66    5.298869658174e-05
    67   -5.683807483298e-16
    68   -3.755545861387e-05
    69    9.533860209816e-16
    70   -2.674033777628e-07
    71    1.167431782932e-04
    72    1.641632511210e-05
    73   -1.820838109113e-05
    74    9.813566578223e-06
    75    7.718877402306e-16
    76    3.120141203430e-05
    77   -2.098601714852e-07
    78   -1.571404853403e-06
    79   -8.223698125598e-06
    80   -2.673942418868e-05
    81   -7.717201219997e-05
    82   -8.436977141522e-05
    83   -5.426671010993e-05
    84   -4.153312422969e-15
    85    2.887688972606e-15
    86   -8.179735662967e-06
    87    1.525373919530e-04
    88    1.832897866988e-14
    89    3.113032361708e-15
    90    6.292830595532e-05
    91   -8.979066470008e-04
    92    1.412718902490e-13
    93    8.502049117657e-15
    94   -4.090400118728e-04
    95    1.574879463308e-03
    96   -5.861222059345e-12
    97   -3.443211921323e-14
    98    2.551999056428e-05
    99    8.789063518400e-05
   100   -4.596686337434e-13
   101    1.686330039003e-13
   102   -2.287841275771e-04
   103   -2.702001198100e-05
   104   -1.122310187381e-14
   105    2.539894744486e-16
   106    1.669095549244e-05
   107   -8.999867498151e-16
   108    1.051041419102e-05
   109    5.997588435635e-06
   110   -1.639444474755e-04
   111   -5.642480406341e-05
   112   -1.213731123060e-14
   113    1.037792178552e-15
   114    1.389941821183e-05
   115    7.289098959140e-08
   116    6.177858413691e-07
   117    2.694648991765e-06
   118    1.074058252910e-05
   119    1.103113711491e-05
   120   -5.523450095344e-05
   121    6.527365700017e-05
   122    1.042244957946e-05
   123   -6.291642013227e-16
   124   -3.105157465600e-05
   125    1.137151499490e-04
   126   -4.883731569855e-05
   127    7.400527709226e-16
   128    2.146417152971e-04
   129    3.759314446626e-04
   130   -4.202550229023e-04
   131   -7.780396316090e-16
   132   -6.031662181141e-05
   133    6.642817466512e-04
   134    3.861102310011e-04
   135    2.655723572415e-14
   136    4.491422798289e-04
   137   -7.354632172388e-05
   138   -1.481366204378e-04
   139   -1.493741572087e-13
   140    3.410650471170e-04
   141    8.197319051418e-05
   142   -5.298869657598e-05
   143   -5.023881495255e-16
   144   -3.755545863115e-05
   145   -1.119668980578e-15
   146   -2.674033773512e-07
   147    1.167431783722e-04
   148    1.641632529874e-05
   149   -1.820837879802e-05
   150   -9.813566607523e-06
   151   -1.674330628109e-16
   152    3.120141202537e-05
   153    1.389145488287e-05
   154    1.074525134527e-04
   155    5.365514194878e-04
   156    1.839385767073e-03
   157    4.364878661976e-03
   158    1.584104181996e-03
   159    5.737186885544e-03
   160   -1.115693936449e-04
   161   -4.836867859585e-16
   162    4.210850856256e-05
   163    3.610775904703e-04
   164   -4.282409872444e-04
   165   -6.440586515290e-16
   166    3.323702140557e-04
   167   -7.590951067572e-04
   168    6.127620936509e-04
   169    6.461933044273e-16
   170   -1.680673051954e-04
   171   -6.458718434768e-04
   172   -1.115048266021e-04
   173   -2.576382887728e-14
   174    1.031779018202e-03
   175   -2.399614136903e-04
   176    1.878789422217e-04
   177    1.739713717165e-13
   178   -7.292924558010e-04
   179   -1.357049241642e-04
   180   -2.916626030674e-04
   181    4.468643785751e-16
   182    6.294848847292e-05
   183   -1.098731511265e-15
   184    3.790442299962e-05
   185    9.504832215078e-05
   186   -2.983912011795e-04
   187   -2.393238235725e-04
   188   -9.243788783183e-05
   189   -1.781560616483e-16
   190    9.003433973691e-07
   191    1.109223631701e-03
   192    8.587472457993e-03
   193    4.283603655063e-02
   194    1.470786102010e-01
   195    3.473795989379e-01
   196    1.263727518537e-01
   197    4.654201928113e-01
   198    7.822641708810e-15
   199    3.659705118941e-15
   200    1.128216574503e-03
   201    1.920596333665e-03
   202   -5.091023376719e-15
   203    9.658392934087e-18
   204   -7.362013847050e-04
   205    1.986052677758e-03
   206   -1.092409693865e-13
   207    1.751595350214e-15
   208   -1.265431188141e-04
   209   -1.898448717006e-03
   210    9.817050288547e-12
   211    3.249743706393e-14
   212   -1.490421833130e-03
   213   -1.922313257217e-04
   214    7.325600601475e-13
   215   -2.373047626519e-13
   216    9.254819891582e-04
   217   -5.935161058896e-05
   218   -4.652847278175e-16
   219   -4.413593403882e-16
   220    2.376182917112e-04
   221   -3.925563114205e-16
   222    1.052889942265e-06
   223    2.463362612538e-06
   224    2.190960245492e-06
   225   -3.921148216353e-05
   226    9.737962775408e-05
   227   -1.567922567175e-04
   228    1.119507423673e-04
   229    1.772865481171e-04
   230    3.728798290632e-16
   231    4.322758465587e-16
   232   -2.606595019053e-06
   233    8.897529375371e-15
   234    5.562600648805e-15
   235   -2.021943979646e-05
   236   -1.806191875148e-14
   237   -9.784746250918e-15
   238    4.897359282296e-05
   239    2.274400344401e-14
   240   -2.445830844996e-15
   241    6.131205936709e-05
   242   -4.276221480501e-14
   243   -5.125617426184e-15
   244    1.516228939542e-05
   245    5.147027460594e-14
   246    2.782518883511e-15
   247   -4.511924453898e-04
   248   -1.496493170561e-13
   249   -9.880574974562e-15
   250    1.316829197494e-04
   251   -8.844804415547e-07
   252   -9.747729714330e-15
   253   -6.083111954620e-16
   254    1.277972560618e-07
   255   -4.411895623163e-16
   256   -3.957578060940e-05
   257   -5.017747890442e-16
   258   -5.263453265356e-16
   259    3.106968365642e-07
   260    2.077683586759e-18
   261    1.280764681885e-03
   262   -2.898228729775e-13
   263    7.400025281551e-15
   264   -4.368796744843e-04
   265    5.951417850214e-04
   266   -2.745885612484e-13
   267    4.668505071137e-15
   268   -2.214804863772e-04
   269    2.806787060054e-04
   270    1.143499811335e-15
   271   -6.880657190896e-16
   272   -1.676769007726e-06
   273   -3.551377894510e-16
Sym=X
Ene= 0.798113
Spin=Alpha
Occup=0
     1   -8.800334421534e-03
     2   -2.328312974962e-03
     3    3.684076419389e-03
     4    1.829692872404e-02
     5   -5.008672421291e-03
     6   -1.095591918305e-13
     7    3.241594629652e-03
     8    2.785992542783e-05
     9    2.095533825972e-04
    10    1.119109620162e-03
    11    3.617920061579e-03
    12    9.138948262479e-03
    13    4.625141853281e-03
    14    2.370624959407e-02
    15    9.288073192983e-03
    16   -1.205484113043e-13
    17   -1.616424256745e-02
    18   -8.445749210645e-02
    19    1.327087176773e-02
    20    7.473693499079e-14
    21   -2.527967634733e-02
    22   -1.847133846115e-01
    23    3.200750271309e-02
    24   -1.960625990536e-12
    25   -6.852305391578e-02
    26   -5.910426650812e-01
    27   -8.689620272043e-02
    28    9.073114078922e-12
    29    9.323907155385e-02
    30    1.117769727918e-01
    31    1.391777228932e-01
    32   -2.915734290435e-10
    33    2.679661424824e-01
    34   -3.350349043554e-03
    35   -1.887592615113e-03
    36    6.192380978940e-14
    37   -8.744799683774e-03
    38    2.173814079506e-13
    39    1.121490153978e-05
    40    8.463259830745e-05
    41    4.497503252380e-04
    42    1.459948797244e-03
    43    3.584635661797e-03
    44    1.194495527166e-03
    45    9.794470721694e-03
    46    7.479742437923e-03
    47    5.151637115075e-17
    48    1.071814618234e-02
    49   -3.081839790334e-02
    50    1.250968074460e-02
    51   -1.072253997128e-13
    52    1.720289388840e-02
    53   -1.260722772570e-01
    54   -7.117275159725e-03
    55    5.492406971967e-13
    56    2.064546886325e-03
    57   -7.100293142867e-01
    58   -3.689883264430e-01
    59   -9.129880365311e-12
    60   -8.860797990868e-02
    61    3.617824795357e-02
    62   -1.970969946714e-01
    63    4.638339487686e-10
    64   -2.741822958178e-02
    65   -5.068860465225e-03
    66    3.301386247877e-03
    67   -5.353228539094e-14
    68   -4.521056259723e-03
    69    1.733858114636e-13
    70   -4.038037456038e-03
    71   -2.793948493723e-03
    72   -3.462242546254e-02
    73   -2.350586361149e-01
    74   -3.502061534627e-03
    75   -5.737641005181e-14
    76   -6.042770814451e-04
    77    1.209311086960e-05
    78    9.127729212259e-05
    79    4.848782699287e-04
    80    1.574974047732e-03
    81    3.868543852191e-03
    82    1.376142791650e-03
    83    1.053804047927e-02
    84   -1.464398621162e-10
    85    6.676285789689e-13
    86    5.395024390643e-03
    87   -3.420413948115e-02
    88   -1.303038677721e-10
    89    1.127512779649e-12
    90    9.802956077779e-03
    91   -5.193440407624e-02
    92   -1.704493349804e-09
    93    1.318859003806e-12
    94    3.412700297887e-02
    95    1.357782152567e+00
    96   -1.707429147356e-07
    97    1.318037410421e-11
    98    3.697962167876e-01
    99    1.569049866895e-01
   100    1.074992412063e-07
   101   -4.963646172803e-10
   102   -1.288673335443e-02
   103    2.242798333969e-03
   104    6.910749967984e-11
   105    5.928525795889e-15
   106   -6.889332316914e-03
   107   -1.841278690073e-15
   108    1.014430783448e-03
   109    1.117057585319e-02
   110    2.261234883046e-02
   111    1.437556244312e-01
   112   -7.458779469611e-11
   113    7.638238154542e-14
   114   -2.339230055530e-03
   115    1.121490119657e-05
   116    8.463259577534e-05
   117    4.497503113568e-04
   118    1.459948753705e-03
   119    3.584635536129e-03
   120    1.194495397871e-03
   121    9.794470471416e-03
   122   -7.479742063086e-03
   123    2.740006001695e-14
   124    1.071814599198e-02
   125   -3.081839666880e-02
   126   -1.250968022262e-02
   127   -6.569080623635e-14
   128    1.720289364025e-02
   129   -1.260722802216e-01
   130    7.117276614463e-03
   131    5.821073304275e-13
   132    2.064543313413e-03
   133   -7.100284673825e-01
   134    3.689878874983e-01
   135   -9.018973824369e-12
   136   -8.860799590242e-02
   137    3.617824226200e-02
   138    1.970967451497e-01
   139    4.641824662274e-10
   140   -2.741824329750e-02
   141   -5.068860648804e-03
   142   -3.301386312451e-03
   143   -9.192873762755e-14
   144   -4.521056400123e-03
   145   -1.177630905975e-13
   146   -4.038037399793e-03
   147   -2.793948529100e-03
   148   -3.462242494899e-02
   149   -2.350584437866e-01
   150    3.502061392292e-03
   151   -5.901724556966e-15
   152   -6.042769193953e-04
   153    2.785992549054e-05
   154    2.095533830518e-04
   155    1.119109622760e-03
   156    3.617920069382e-03
   157    9.138948290411e-03
   158    4.625141909104e-03
   159    2.370624962536e-02
   160   -9.288073208312e-03
   161   -8.366847892353e-14
   162   -1.616424235075e-02
   163   -8.445749250739e-02
   164   -1.327087187061e-02
   165    1.540464125934e-13
   166   -2.527967605020e-02
   167   -1.847133805497e-01
   168   -3.200750259570e-02
   169   -2.017238808832e-12
   170   -6.852305702445e-02
   171   -5.910447461427e-01
   172    8.689679798674e-02
   173    9.132871755933e-12
   174    9.323875253447e-02
   175    1.117770046200e-01
   176   -1.391774606096e-01
   177   -2.922296872109e-10
   178    2.679661484410e-01
   179   -3.350348878172e-03
   180    1.887592662251e-03
   181    9.973835581048e-14
   182   -8.744799747994e-03
   183   -1.547349541090e-13
   184   -8.800334422784e-03
   185   -2.328312033962e-03
   186    3.684073305210e-03
   187    1.829676783331e-02
   188    5.008672332860e-03
   189   -5.122177098752e-14
   190    3.241594776214e-03
   191    1.286662846938e-06
   192    8.242584411856e-06
   193    5.462950789305e-05
   194    1.348217980605e-04
   195    7.878813344166e-04
   196    2.590401844387e-03
   197    5.716825257144e-05
   198   -1.084893844499e-10
   199    9.865910901702e-13
   200    3.147834960291e-02
   201   -2.576951874832e-02
   202   -2.663255540666e-10
   203    1.818197158216e-12
   204    3.776048795261e-02
   205   -1.278654091990e-02
   206    9.108546294638e-10
   207    2.810996276136e-12
   208    5.271818162779e-02
   209    1.335302197035e+00
   210    5.923090101661e-07
   211    1.714318285983e-12
   212   -7.522616268856e-01
   213    2.679476599274e-01
   214   -1.252435446716e-07
   215    4.348327537620e-11
   216   -5.747168358712e-01
   217   -5.475065662205e-03
   218   -4.075675764083e-11
   219    9.087811940864e-14
   220   -1.885225012045e-02
   221   -6.419803436123e-15
   222    2.270492456032e-03
   223    7.397414802311e-03
   224   -2.007835895579e-02
   225   -2.486863974717e-02
   226    4.944728322811e-02
   227    6.910116478466e-02
   228   -1.454273334356e-01
   229   -2.355220877569e-01
   230   -3.117429041882e-11
   231    3.094332147118e-14
   232    3.534056036876e-04
   233   -2.554760299561e-10
   234    2.642257039551e-13
   235    2.964700196526e-03
   236    6.372535051878e-10
   237   -7.091424661163e-13
   238   -7.983314636541e-03
   239    7.238374018153e-10
   240   -4.945937787736e-14
   241   -1.686435636158e-03
   242   -1.646091790820e-09
   243    5.326063650161e-14
   244    2.513338443408e-03
   245    7.992106839344e-10
   246    2.673260844593e-12
   247    3.584351121063e-02
   248   -1.493001409163e-08
   249   -2.843454770780e-12
   250    4.723592503464e-02
   251    2.202208188948e-03
   252   -1.660334571718e-11
   253    1.535735291229e-13
   254    2.287720544738e-03
   255    4.989014738467e-14
   256    5.369381580235e-04
   257   -2.415227680847e-11
   258    1.486979326064e-14
   259    6.912935386026e-04
   260    2.197890434743e-14
   261    3.729875465872e-01
   262   -3.493470471784e-09
   263    1.411313202270e-11
   264   -1.078277734681e-01
   265    4.378213838037e-01
   266    1.257118899580e-09
   267    7.035162980310e-11
   268    3.126078912446e-02
   269   -1.179322681329e-02
   270    2.136732256810e-10
   271   -3.373133414892e-13
   272   -7.412181214246e-03
   273   -1.731179590079e-14
[5D]
