[Molden Format]
[Atoms] (Angs)
  H      1    1     -2.14344049      0.00000000     -0.22359064
  C      2    6     -1.21326725     -0.00000000     -0.77278636
  C      3    6     -1.20502948     -0.00000000     -2.16587022
  H      4    1     -2.14438543     -0.00000000     -2.70149179
  C      5    6      0.00000000     -0.00000000     -2.86507761
  H      6    1      0.00000000     -0.00000000     -3.94588772
  C      7    6      1.20502948     -0.00000000     -2.16587022
  H      8    1      2.14438543     -0.00000000     -2.70149179
  C      9    6      1.21326725     -0.00000000     -0.77278636
  H     10    1      2.14344049     -0.00000000     -0.22359064
  C     11    6     -0.00000000     -0.00000000     -0.08999076
 Br     12   35     -0.00000000      0.00000000      1.79400976
[GTO]
1    0
S    3    1.000000
   3.38650000E+01    2.54938000E-02 
   5.09479000E+00    1.90373000E-01 
   1.15879000E+00    8.52161000E-01 
S    1    1.000000
   3.25840000E-01    1.00000000E+00 
S    1    1.000000
   1.02741000E-01    1.00000000E+00 
S    1    1.000000
   3.60000000E-02    1.00000000E+00 
P    1    1.000000
   7.50000000E-01    1.00000000E+00 

2    0
S    1    1.000000
   4.56324000E+03    1.96665000E-03 
S    1    1.000000
   6.82024000E+02    1.52306000E-02 
S    1    1.000000
   1.54973000E+02    7.61269000E-02 
S    1    1.000000
   4.44553000E+01    2.60801000E-01 
S    1    1.000000
   1.30290000E+01    6.16462000E-01 
S    1    1.000000
   1.82773000E+00    2.21006000E-01 
SP   3    1.000000
   2.09642000E+01    1.14660000E-01   4.02487000E-02 
   4.80331000E+00    9.19999000E-01   2.37594000E-01 
   1.45933000E+00   -3.03068000E-03   8.15854000E-01 
SP   1    1.000000
   4.83456000E-01    1.00000000E+00   1.00000000E+00 
SP   1    1.000000
   1.45585000E-01    1.00000000E+00   1.00000000E+00 
SP   1    1.000000
   4.38000000E-02    1.00000000E+00   1.00000000E+00 
SP   1    1.000000
   1.31927711E-02    1.00000000E+00   1.00000000E+00 
D    1    1.000000
   6.26000000E-01    1.00000000E+00 

3    0
S    1    1.000000
   4.56324000E+03    1.96665000E-03 
S    1    1.000000
   6.82024000E+02    1.52306000E-02 
S    1    1.000000
   1.54973000E+02    7.61269000E-02 
S    1    1.000000
   4.44553000E+01    2.60801000E-01 
S    1    1.000000
   1.30290000E+01    6.16462000E-01 
S    1    1.000000
   1.82773000E+00    2.21006000E-01 
SP   3    1.000000
   2.09642000E+01    1.14660000E-01   4.02487000E-02 
   4.80331000E+00    9.19999000E-01   2.37594000E-01 
   1.45933000E+00   -3.03068000E-03   8.15854000E-01 
SP   1    1.000000
   4.83456000E-01    1.00000000E+00   1.00000000E+00 
SP   1    1.000000
   1.45585000E-01    1.00000000E+00   1.00000000E+00 
SP   1    1.000000
   4.38000000E-02    1.00000000E+00   1.00000000E+00 
SP   1    1.000000
   1.31927711E-02    1.00000000E+00   1.00000000E+00 
D    1    1.000000
   6.26000000E-01    1.00000000E+00 

4    0
S    3    1.000000
   3.38650000E+01    2.54938000E-02 
   5.09479000E+00    1.90373000E-01 
   1.15879000E+00    8.52161000E-01 
S    1    1.000000
   3.25840000E-01    1.00000000E+00 
S    1    1.000000
   1.02741000E-01    1.00000000E+00 
S    1    1.000000
   3.60000000E-02    1.00000000E+00 
P    1    1.000000
   7.50000000E-01    1.00000000E+00 

5    0
S    1    1.000000
   4.56324000E+03    1.96665000E-03 
S    1    1.000000
   6.82024000E+02    1.52306000E-02 
S    1    1.000000
   1.54973000E+02    7.61269000E-02 
S    1    1.000000
   4.44553000E+01    2.60801000E-01 
S    1    1.000000
   1.30290000E+01    6.16462000E-01 
S    1    1.000000
   1.82773000E+00    2.21006000E-01 
SP   3    1.000000
   2.09642000E+01    1.14660000E-01   4.02487000E-02 
   4.80331000E+00    9.19999000E-01   2.37594000E-01 
   1.45933000E+00   -3.03068000E-03   8.15854000E-01 
SP   1    1.000000
   4.83456000E-01    1.00000000E+00   1.00000000E+00 
SP   1    1.000000
   1.45585000E-01    1.00000000E+00   1.00000000E+00 
SP   1    1.000000
   4.38000000E-02    1.00000000E+00   1.00000000E+00 
SP   1    1.000000
   1.31927711E-02    1.00000000E+00   1.00000000E+00 
D    1    1.000000
   6.26000000E-01    1.00000000E+00 

6    0
S    3    1.000000
   3.38650000E+01    2.54938000E-02 
   5.09479000E+00    1.90373000E-01 
   1.15879000E+00    8.52161000E-01 
S    1    1.000000
   3.25840000E-01    1.00000000E+00 
S    1    1.000000
   1.02741000E-01    1.00000000E+00 
S    1    1.000000
   3.60000000E-02    1.00000000E+00 
P    1    1.000000
   7.50000000E-01    1.00000000E+00 

7    0
S    1    1.000000
   4.56324000E+03    1.96665000E-03 
S    1    1.000000
   6.82024000E+02    1.52306000E-02 
S    1    1.000000
   1.54973000E+02    7.61269000E-02 
S    1    1.000000
   4.44553000E+01    2.60801000E-01 
S    1    1.000000
   1.30290000E+01    6.16462000E-01 
S    1    1.000000
   1.82773000E+00    2.21006000E-01 
SP   3    1.000000
   2.09642000E+01    1.14660000E-01   4.02487000E-02 
   4.80331000E+00    9.19999000E-01   2.37594000E-01 
   1.45933000E+00   -3.03068000E-03   8.15854000E-01 
SP   1    1.000000
   4.83456000E-01    1.00000000E+00   1.00000000E+00 
SP   1    1.000000
   1.45585000E-01    1.00000000E+00   1.00000000E+00 
SP   1    1.000000
   4.38000000E-02    1.00000000E+00   1.00000000E+00 
SP   1    1.000000
   1.31927711E-02    1.00000000E+00   1.00000000E+00 
D    1    1.000000
   6.26000000E-01    1.00000000E+00 

8    0
S    3    1.000000
   3.38650000E+01    2.54938000E-02 
   5.09479000E+00    1.90373000E-01 
   1.15879000E+00    8.52161000E-01 
S    1    1.000000
   3.25840000E-01    1.00000000E+00 
S    1    1.000000
   1.02741000E-01    1.00000000E+00 
S    1    1.000000
   3.60000000E-02    1.00000000E+00 
P    1    1.000000
   7.50000000E-01    1.00000000E+00 

9    0
S    1    1.000000
   4.56324000E+03    1.96665000E-03 
S    1    1.000000
   6.82024000E+02    1.52306000E-02 
S    1    1.000000
   1.54973000E+02    7.61269000E-02 
S    1    1.000000
   4.44553000E+01    2.60801000E-01 
S    1    1.000000
   1.30290000E+01    6.16462000E-01 
S    1    1.000000
   1.82773000E+00    2.21006000E-01 
SP   3    1.000000
   2.09642000E+01    1.14660000E-01   4.02487000E-02 
   4.80331000E+00    9.19999000E-01   2.37594000E-01 
   1.45933000E+00   -3.03068000E-03   8.15854000E-01 
SP   1    1.000000
   4.83456000E-01    1.00000000E+00   1.00000000E+00 
SP   1    1.000000
   1.45585000E-01    1.00000000E+00   1.00000000E+00 
SP   1    1.000000
   4.38000000E-02    1.00000000E+00   1.00000000E+00 
SP   1    1.000000
   1.31927711E-02    1.00000000E+00   1.00000000E+00 
D    1    1.000000
   6.26000000E-01    1.00000000E+00 

10    0
S    3    1.000000
   3.38650000E+01    2.54938000E-02 
   5.09479000E+00    1.90373000E-01 
   1.15879000E+00    8.52161000E-01 
S    1    1.000000
   3.25840000E-01    1.00000000E+00 
S    1    1.000000
   1.02741000E-01    1.00000000E+00 
S    1    1.000000
   3.60000000E-02    1.00000000E+00 
P    1    1.000000
   7.50000000E-01    1.00000000E+00 

11    0
S    1    1.000000
   4.56324000E+03    1.96665000E-03 
S    1    1.000000
   6.82024000E+02    1.52306000E-02 
S    1    1.000000
   1.54973000E+02    7.61269000E-02 
S    1    1.000000
   4.44553000E+01    2.60801000E-01 
S    1    1.000000
   1.30290000E+01    6.16462000E-01 
S    1    1.000000
   1.82773000E+00    2.21006000E-01 
SP   3    1.000000
   2.09642000E+01    1.14660000E-01   4.02487000E-02 
   4.80331000E+00    9.19999000E-01   2.37594000E-01 
   1.45933000E+00   -3.03068000E-03   8.15854000E-01 
SP   1    1.000000
   4.83456000E-01    1.00000000E+00   1.00000000E+00 
SP   1    1.000000
   1.45585000E-01    1.00000000E+00   1.00000000E+00 
SP   1    1.000000
   4.38000000E-02    1.00000000E+00   1.00000000E+00 
SP   1    1.000000
   1.31927711E-02    1.00000000E+00   1.00000000E+00 
D    1    1.000000
   6.26000000E-01    1.00000000E+00 

12    0
S    6    1.000000
   4.39700000E+05    8.13000000E-04 
   6.60300000E+04    6.28500000E-03 
   1.51400000E+04    3.19200000E-02 
   4.31700000E+03    1.28800000E-01 
   1.41400000E+03    3.94600000E-01 
   5.23900000E+02    5.41300000E-01 
S    3    1.000000
   5.23900000E+02    1.83100000E-01 
   2.07700000E+02    6.17600000E-01 
   8.65400000E+01    2.53800000E-01 
S    1    1.000000
   3.05200000E+01    1.00000000E+00 
S    1    1.000000
   1.29800000E+01    1.00000000E+00 
S    1    1.000000
   4.41200000E+00    1.00000000E+00 
S    1    1.000000
   1.86200000E+00    1.00000000E+00 
S    1    1.000000
   3.93200000E-01    1.00000000E+00 
S    1    1.000000
   1.40000000E-01    1.00000000E+00 
P    3    1.000000
   2.95700000E+03    2.22600000E-02 
   7.00300000E+02    1.80200000E-01 
   2.24600000E+02    8.62400000E-01 
P    3    1.000000
   8.25900000E+01    3.44000000E-01 
   3.31900000E+01    5.07100000E-01 
   1.42000000E+01    2.59000000E-01 
P    3    1.000000
   1.42000000E+01    7.96500000E-02 
   7.43800000E+00    3.73400000E-01 
   3.52600000E+00    6.04900000E-01 
P    1    1.000000
   1.59500000E+00    1.00000000E+00 
P    1    1.000000
   8.46200000E-01    1.00000000E+00 
P    1    1.000000
   3.18600000E-01    1.00000000E+00 
P    1    1.000000
   1.09600000E-01    1.00000000E+00 
D    4    1.000000
   1.34800000E+02    1.83100000E-02 
   3.63900000E+01    1.35000000E-01 
   1.21600000E+01    4.26100000E-01 
   4.34100000E+00    6.04300000E-01 
D    1    1.000000
   1.53500000E+00    1.00000000E+00 
SP   1    1.000000
   3.90000000E-02    1.00000000E+00   1.00000000E+00 
SP   1    1.000000
   1.17469880E-02    1.00000000E+00   1.00000000E+00 
D    1    1.000000
   4.15000000E-01    1.00000000E+00 

[MO]
Sym=X
Ene= -0.798029
Spin=Alpha
Occup=1
     1    3.788347824991e-05
     2    9.500120969098e-05
     3   -2.983995685477e-04
     4   -2.393110182550e-04
     5    9.243962743355e-05
     6   -2.647004200899e-17
     7    8.983332319172e-07
     8    1.389144928422e-05
     9    1.074524688609e-04
    10    5.365511936544e-04
    11    1.839384955013e-03
    12    4.364877576292e-03
    13    1.584108425489e-03
    14    5.737177658874e-03
    15    1.115669178714e-04
    16    1.415126353859e-15
    17    4.209924983916e-05
    18    3.611355787402e-04
    19    4.282333934223e-04
    20   -1.076399111141e-15
    21    3.323573954659e-04
    22   -7.591280265186e-04
    23   -6.127525145457e-04
    24    8.579701942553e-15
    25   -1.680937899251e-04
    26   -6.457881729934e-04
    27    1.115250071418e-04
    28   -4.525865194706e-14
    29    1.031739143542e-03
    30   -2.399408423614e-04
    31   -1.878739725333e-04
    32    2.332460735387e-13
    33   -7.292756528713e-04
    34   -1.357009978665e-04
    35    2.916620537472e-04
    36   -1.695386637117e-16
    37    6.295825496388e-05
    38    4.538157495801e-16
    39    7.289045830783e-08
    40    6.177804212933e-07
    41    2.694625551812e-06
    42    1.074043680697e-05
    43    1.103121946290e-05
    44   -5.523220639043e-05
    45    6.527111100738e-05
    46   -1.042969252076e-05
    47    5.839647320864e-16
    48   -3.104455179752e-05
    49    1.137379861780e-04
    50    4.882405984607e-05
    51    5.156207392995e-15
    52    2.146506455695e-04
    53    3.759260806311e-04
    54    4.202751352851e-04
    55   -4.203753599320e-15
    56   -6.029183393037e-05
    57    6.643390873365e-04
    58   -3.860629755178e-04
    59    4.809663578193e-14
    60    4.491471330051e-04
    61   -7.352952627316e-05
    62    1.481369176601e-04
    63   -2.095557555013e-13
    64    3.410584052401e-04
    65    8.198130456728e-05
    66    5.298657030961e-05
    67   -5.683806327283e-16
    68   -3.755083445169e-05
    69    9.533886684369e-16
    70   -2.794854302565e-07
    71    1.167211835571e-04
    72    1.642038201001e-05
    73   -1.819021987548e-05
    74    9.815749135385e-06
    75    7.718842619856e-16
    76    3.120267543676e-05
    77   -2.098558095813e-07
    78   -1.571373466178e-06
    79   -8.223525953332e-06
    80   -2.673894260807e-05
    81   -7.717032775785e-05
    82   -8.436653862183e-05
    83   -5.426528178627e-05
    84   -4.108328310401e-15
    85    2.887675150207e-15
    86   -8.195961089697e-06
    87    1.525490112179e-04
    88    1.823963587115e-14
    89    3.113047887297e-15
    90    6.290050273585e-05
    91   -8.979535964750e-04
    92    1.431648698820e-13
    93    8.501877463127e-15
    94   -4.090700795541e-04
    95    1.574693315792e-03
    96   -5.741553241014e-12
    97   -3.443196609798e-14
    98    2.546689299270e-05
    99    8.788395438293e-05
   100   -4.623007515908e-13
   101    1.686634412025e-13
   102   -2.287790916998e-04
   103   -2.701740921136e-05
   104   -1.112220642249e-14
   105    2.539902387214e-16
   106    1.669717258157e-05
   107   -8.999884469522e-16
   108    1.051122598096e-05
   109    5.995366104406e-06
   110   -1.639395458692e-04
   111   -5.644457821912e-05
   112   -1.220956933184e-14
   113    1.037790407160e-15
   114    1.390115305091e-05
   115    7.289046007936e-08
   116    6.177804364834e-07
   117    2.694625626770e-06
   118    1.074043705440e-05
   119    1.103122006964e-05
   120   -5.523220619029e-05
   121    6.527111180325e-05
   122    1.042969252857e-05
   123   -6.291663469223e-16
   124   -3.104455178606e-05
   125    1.137379862546e-04
   126   -4.882405985380e-05
   127    7.400741414137e-16
   128    2.146506455471e-04
   129    3.759260802542e-04
   130   -4.202751352403e-04
   131   -7.780608683881e-16
   132   -6.029183362489e-05
   133    6.643391015866e-04
   134    3.860629659354e-04
   135    2.655705109796e-14
   136    4.491471267299e-04
   137   -7.352952625838e-05
   138   -1.481369173050e-04
   139   -1.494029786668e-13
   140    3.410584044501e-04
   141    8.198130456162e-05
   142   -5.298657030370e-05
   143   -5.023957425190e-16
   144   -3.755083446906e-05
   145   -1.119665264384e-15
   146   -2.794854299389e-07
   147    1.167211836381e-04
   148    1.642038221694e-05
   149   -1.819021757044e-05
   150   -9.815749164891e-06
   151   -1.674314326186e-16
   152    3.120267542797e-05
   153    1.389144928530e-05
   154    1.074524688668e-04
   155    5.365511936967e-04
   156    1.839384955132e-03
   157    4.364877576644e-03
   158    1.584108425625e-03
   159    5.737177659276e-03
   160   -1.115669178811e-04
   161   -4.837096823418e-16
   162    4.209924983822e-05
   163    3.611355786436e-04
   164   -4.282333934445e-04
   165   -6.440909535458e-16
   166    3.323573954516e-04
   167   -7.591280261652e-04
   168    6.127525145483e-04
   169    6.461569700198e-16
   170   -1.680937897305e-04
   171   -6.457881967008e-04
   172   -1.115249956558e-04
   173   -2.576372601521e-14
   174    1.031739135918e-03
   175   -2.399408418092e-04
   176    1.878739721057e-04
   177    1.739872428660e-13
   178   -7.292756519629e-04
   179   -1.357009978586e-04
   180   -2.916620537557e-04
   181    4.468684505026e-16
   182    6.295825495950e-05
   183   -1.098718324329e-15
   184    3.788347826420e-05
   185    9.500120968226e-05
   186   -2.983995689052e-04
   187   -2.393110211243e-04
   188   -9.243962744763e-05
   189   -1.781590141080e-16
   190    8.983332180394e-07
   191    1.109223652563e-03
   192    8.587472615566e-03
   193    4.283603738557e-02
   194    1.470786129215e-01
   195    3.473796056993e-01
   196    1.263727555067e-01
   197    4.654202101793e-01
   198    7.925509652662e-15
   199    3.659648536967e-15
   200    1.128204169040e-03
   201    1.920555211668e-03
   202   -4.822176371359e-15
   203    9.566277260834e-18
   204   -7.362256876974e-04
   205    1.985998558109e-03
   206   -1.073010469863e-13
   207    1.751483325624e-15
   208   -1.265253118735e-04
   209   -1.898527555506e-03
   210    9.167129715125e-12
   211    3.249658163914e-14
   212   -1.490285000602e-03
   213   -1.922288196028e-04
   214    7.207863767804e-13
   215   -2.373014127203e-13
   216    9.254849195365e-04
   217   -5.934391934568e-05
   218   -3.696577089421e-16
   219   -4.413479739478e-16
   220    2.376317251901e-04
   221   -3.925567928345e-16
   222    1.050585622289e-06
   223    2.455858145430e-06
   224    2.211144147774e-06
   225   -3.918757763672e-05
   226    9.732408298438e-05
   227   -1.568405068674e-04
   228    1.121217518628e-04
   229    1.772548481566e-04
   230    3.840134202153e-16
   231    4.322742456194e-16
   232   -2.608537947853e-06
   233    8.988095121491e-15
   234    5.562587185466e-15
   235   -2.023411839345e-05
   236   -1.829117058438e-14
   237   -9.784705471318e-15
   238    4.898326338382e-05
   239    2.236580048167e-14
   240   -2.445826076779e-15
   241    6.131580698958e-05
   242   -4.189455384936e-14
   243   -5.125620681915e-15
   244    1.515387590735e-05
   245    5.061522582507e-14
   246    2.782406514195e-15
   247   -4.512244486414e-04
   248   -1.403339887487e-13
   249   -9.880395984064e-15
   250    1.316714907600e-04
   251   -8.803461195172e-07
   252   -9.640869402348e-15
   253   -6.082979918926e-16
   254    1.281706366849e-07
   255   -4.343631896087e-16
   256   -3.957457009991e-05
   257   -4.799619043923e-16
   258   -5.263388222557e-16
   259    3.119573793385e-07
   260    4.636151438947e-18
   261    1.280658049913e-03
   262   -2.790280221204e-13
   263    7.399168188661e-15
   264   -4.368549901642e-04
   265    5.950844823824e-04
   266   -2.683263262533e-13
   267    4.661832868209e-15
   268   -2.214680988232e-04
   269    2.806817888618e-04
   270    7.614717287022e-16
   271   -6.880556030764e-16
   272   -1.670584132476e-06
   273   -3.548518307715e-16
Sym=X
Ene= 0.798029
Spin=Alpha
Occup=0
     1    1.114357628444e-12
     2    6.720948291894e-12
     3   -1.816066905876e-11
     4    9.952192737108e-11
     5    1.422151166643e-12
     6   -5.714534667060e-04
     7   -6.318307823472e-13
     8   -9.386058473699e-16
     9   -9.398176228400e-15
    10   -4.812522103415e-14
    11   -1.475100070582e-13
    12   -5.008726458807e-13
    13   -1.022024607256e-12
    14   -6.553517125253e-13
    15   -1.988288214378e-12
    16    2.795343697770e-02
    17    1.816257251691e-12
    18    5.804452390321e-12
    19    1.366672624300e-13
    20    4.748789739495e-02
    21   -1.563684858820e-12
    22    1.415389716004e-11
    23    3.489146562811e-12
    24    6.483717502836e-02
    25    2.338265980378e-12
    26   -1.455574625573e-09
    27   -3.810962816854e-10
    28   -3.307118695392e-02
    29   -3.652440226316e-10
    30   -3.332548778966e-10
    31   -3.632755596075e-09
    32   -8.106564717511e-01
    33    3.407967528592e-09
    34   -5.590263654150e-14
    35    8.158003007393e-13
    36   -5.200889688564e-03
    37   -2.362873464980e-14
    38    3.191712687599e-03
    39   -1.172287387147e-15
    40   -3.102310466756e-15
    41   -3.375283873398e-14
    42   -8.194168336612e-14
    43   -3.593073834129e-13
    44   -9.102977882239e-13
    45   -1.924021350798e-13
    46   -1.750246504757e-12
    47    2.327692697384e-02
    48   -2.222065161091e-12
    49    4.307197730625e-12
    50   -9.250867036839e-13
    51    3.790167142399e-02
    52    1.274959669254e-12
    53   -1.318641229684e-11
    54   -5.964066708512e-12
    55    5.639692757246e-02
    56   -1.858976881946e-11
    57    6.804555791328e-10
    58    5.490103612360e-10
    59    3.556754948027e-02
    60    1.302421287187e-10
    61   -5.850527256954e-10
    62    2.018651165453e-09
    63    1.762771302935e-01
    64   -2.915969375561e-09
    65   -5.838481966376e-14
    66   -5.052041962084e-13
    67    5.683532526015e-03
    68   -3.632829430796e-13
    69    2.165361916473e-03
    70    1.183641225348e-12
    71    2.192536107104e-12
    72   -6.849185429220e-12
    73    6.950622310991e-10
    74    1.364320562545e-12
    75   -4.541109492383e-04
    76    3.901055456210e-13
    77    8.946615161645e-16
    78    6.429311453570e-15
    79    3.354902552298e-14
    80    1.062199099911e-13
    81    3.166980933110e-13
    82    2.853068179601e-13
    83    5.986126317907e-13
    84    6.342975618512e-13
    85    2.279629496673e-03
    86    1.341478143897e-12
    87   -1.422122000379e-12
    88    5.088914839800e-14
    89    4.212444202489e-03
    90    2.002318840878e-12
    91   -1.604921992283e-11
    92   -3.740966056871e-12
    93   -8.658444900174e-03
    94    6.228836628707e-12
    95   -1.320656830182e-10
    96    2.779832629817e-10
    97   -4.531513693104e-02
    98   -3.076370354621e-10
    99   -6.954604585468e-11
   100   -1.072608214224e-09
   101   -2.629656487167e-01
   102    8.373320887181e-10
   103   -1.740517232615e-13
   104    7.014012491232e-14
   105    5.296381773668e-03
   106    1.222734331239e-13
   107   -5.548668936512e-12
   108   -3.684137292507e-13
   109    2.974554824866e-12
   110    1.854742665566e-12
   111   -4.695418771489e-10
   112    2.253543812568e-13
   113   -2.178606373690e-03
   114   -3.070326185152e-13
   115    1.868171693831e-15
   116    9.335435482890e-15
   117    6.368612949655e-14
   118    1.730988075914e-13
   119    7.540480437058e-13
   120    1.651454685059e-12
   121    4.958814950509e-13
   122   -2.926189638438e-12
   123    2.327692693734e-02
   124    1.016676791850e-12
   125   -1.051790168459e-11
   126   -1.504019390388e-12
   127    3.790167137583e-02
   128   -2.910111783395e-12
   129    3.088429214980e-11
   130   -4.928631900805e-12
   131    5.639692740821e-02
   132    1.049166767037e-12
   133   -5.622067269288e-10
   134    4.613504839972e-10
   135    3.556754976695e-02
   136   -4.578095235607e-11
   137    5.819562896570e-10
   138    1.526124364307e-09
   139    1.762771175524e-01
   140    1.174014658954e-09
   141   -5.896269094907e-14
   142   -8.850940143303e-13
   143    5.683532531779e-03
   144    4.969470915916e-13
   145   -2.165361916396e-03
   146   -1.274484049385e-12
   147   -9.431142807524e-12
   148    4.294825371932e-12
   149   -5.345106809785e-10
   150    1.823785705938e-12
   151   -4.541109545863e-04
   152   -1.110397687354e-12
   153    3.268135672192e-17
   154   -2.074680593069e-16
   155    2.100785533469e-15
   156    1.425898712102e-15
   157    1.893302272565e-13
   158    8.857444845021e-13
   159   -5.208696906955e-13
   160   -1.483046402383e-12
   161    2.795343701121e-02
   162   -1.017644492088e-12
   163   -3.706016573810e-12
   164    6.206925423316e-13
   165    4.748789743547e-02
   166    2.860620726843e-12
   167    2.417064016051e-11
   168   -1.895358789176e-11
   169    6.483717519180e-02
   170    4.701181584669e-12
   171    1.577597624699e-09
   172   -5.208685340104e-10
   173   -3.307118726993e-02
   174    2.246173945496e-10
   175    2.868253685139e-10
   176   -3.267974956873e-09
   177   -8.106564588015e-01
   178   -1.835305690589e-09
   179   -7.658998347651e-13
   180    8.894570453036e-13
   181   -5.200889681823e-03
   182    7.206447072959e-13
   183   -3.191712687497e-03
   184   -3.735063696383e-13
   185   -6.634365080105e-12
   186    4.156464394140e-11
   187    9.615328629040e-11
   188    1.318637931525e-12
   189   -5.714534613572e-04
   190    4.458841441732e-13
   191    3.933464429636e-16
   192    4.835908309274e-15
   193    2.086298657629e-14
   194    7.303594495905e-14
   195    3.304684267140e-14
   196   -8.956441160077e-13
   197    8.755262902402e-13
   198    2.197600897648e-13
   199   -3.050133338325e-03
   200   -1.155750497355e-12
   201    4.096579067147e-12
   202   -1.123963830043e-12
   203   -2.606184109895e-03
   204   -1.214290640275e-12
   205   -4.617488106928e-11
   206   -5.761395971788e-12
   207   -1.892412715318e-02
   208    6.111786075326e-12
   209   -2.007320629992e-10
   210   -8.801524822287e-10
   211   -1.182777611323e-01
   212   -4.286033338799e-11
   213   -1.888842434168e-10
   214    3.102501484356e-09
   215    7.373461473930e-01
   216   -9.195308761569e-10
   217    5.388800394490e-13
   218   -3.671809395442e-13
   219   -4.716173365889e-03
   220   -1.934287487312e-13
   221    5.737676339171e-12
   222   -1.215345437144e-13
   223   -3.984669879636e-13
   224    1.090504582458e-12
   225    1.281475938035e-12
   226   -2.384683935344e-12
   227   -4.360822247665e-12
   228    1.073060396399e-11
   229    7.703913827870e-13
   230   -2.963218066741e-14
   231    1.485588225798e-03
   232   -5.422398440912e-15
   233   -2.542162881713e-13
   234    1.239863259374e-02
   235   -3.830044197723e-14
   236    7.229528727305e-13
   237   -3.256089422819e-02
   238    8.172005295459e-14
   239   -3.873707083186e-13
   240   -1.394312543510e-02
   241    3.663167416394e-13
   242    9.408528990315e-13
   243    3.029565938261e-02
   244   -7.061243760816e-13
   245   -4.858670162850e-12
   246    7.291252865567e-02
   247    4.355897194950e-13
   248    1.651657598093e-11
   249    8.162681815678e-02
   250   -1.209401069465e-11
   251   -1.413465820575e-13
   252   -5.832982785717e-14
   253   -2.351012172767e-03
   254    6.183947254094e-15
   255   -3.641348866402e-12
   256   -3.246402166634e-14
   257    2.275532168501e-14
   258   -3.125213872972e-04
   259   -2.022110909693e-14
   260   -5.838832311172e-13
   261    2.052755717878e-10
   262    3.374629173568e-12
   263    2.203495854984e-02
   264   -2.293964429380e-11
   265    2.377073495118e-10
   266    8.587412736793e-10
   267   -2.371137712480e-01
   268   -8.350496834935e-11
   269    1.680227773321e-12
   270   -1.014383470777e-13
   271    4.082874617772e-03
   272   -1.176233016263e-13
   273    1.010617460102e-11
[5D]
