[Molden Format]
[Atoms] (Angs)
  H      1    1     -2.14344049      0.00000000     -0.22359064
  C      2    6     -1.21326725     -0.00000000     -0.77278636
  C      3    6     -1.20502948     -0.00000000     -2.16587022
  H      4    1     -2.14438543     -0.00000000     -2.70149179
  C      5    6      0.00000000     -0.00000000     -2.86507761
  H      6    1      0.00000000     -0.00000000     -3.94588772
  C      7    6      1.20502948     -0.00000000     -2.16587022
  H      8    1      2.14438543     -0.00000000     -2.70149179
  C      9    6      1.21326725     -0.00000000     -0.77278636
  H     10    1      2.14344049     -0.00000000     -0.22359064
  C     11    6     -0.00000000     -0.00000000     -0.08999076
 Br     12   35     -0.00000000      0.00000000      1.79400976
[GTO]
1    0
S    3    1.000000
   3.38650000E+01    2.54938000E-02 
   5.09479000E+00    1.90373000E-01 
   1.15879000E+00    8.52161000E-01 
S    1    1.000000
   3.25840000E-01    1.00000000E+00 
S    1    1.000000
   1.02741000E-01    1.00000000E+00 
S    1    1.000000
   3.60000000E-02    1.00000000E+00 
P    1    1.000000
   7.50000000E-01    1.00000000E+00 

2    0
S    1    1.000000
   4.56324000E+03    1.96665000E-03 
S    1    1.000000
   6.82024000E+02    1.52306000E-02 
S    1    1.000000
   1.54973000E+02    7.61269000E-02 
S    1    1.000000
   4.44553000E+01    2.60801000E-01 
S    1    1.000000
   1.30290000E+01    6.16462000E-01 
S    1    1.000000
   1.82773000E+00    2.21006000E-01 
SP   3    1.000000
   2.09642000E+01    1.14660000E-01   4.02487000E-02 
   4.80331000E+00    9.19999000E-01   2.37594000E-01 
   1.45933000E+00   -3.03068000E-03   8.15854000E-01 
SP   1    1.000000
   4.83456000E-01    1.00000000E+00   1.00000000E+00 
SP   1    1.000000
   1.45585000E-01    1.00000000E+00   1.00000000E+00 
SP   1    1.000000
   4.38000000E-02    1.00000000E+00   1.00000000E+00 
SP   1    1.000000
   1.31927711E-02    1.00000000E+00   1.00000000E+00 
D    1    1.000000
   6.26000000E-01    1.00000000E+00 

3    0
S    1    1.000000
   4.56324000E+03    1.96665000E-03 
S    1    1.000000
   6.82024000E+02    1.52306000E-02 
S    1    1.000000
   1.54973000E+02    7.61269000E-02 
S    1    1.000000
   4.44553000E+01    2.60801000E-01 
S    1    1.000000
   1.30290000E+01    6.16462000E-01 
S    1    1.000000
   1.82773000E+00    2.21006000E-01 
SP   3    1.000000
   2.09642000E+01    1.14660000E-01   4.02487000E-02 
   4.80331000E+00    9.19999000E-01   2.37594000E-01 
   1.45933000E+00   -3.03068000E-03   8.15854000E-01 
SP   1    1.000000
   4.83456000E-01    1.00000000E+00   1.00000000E+00 
SP   1    1.000000
   1.45585000E-01    1.00000000E+00   1.00000000E+00 
SP   1    1.000000
   4.38000000E-02    1.00000000E+00   1.00000000E+00 
SP   1    1.000000
   1.31927711E-02    1.00000000E+00   1.00000000E+00 
D    1    1.000000
   6.26000000E-01    1.00000000E+00 

4    0
S    3    1.000000
   3.38650000E+01    2.54938000E-02 
   5.09479000E+00    1.90373000E-01 
   1.15879000E+00    8.52161000E-01 
S    1    1.000000
   3.25840000E-01    1.00000000E+00 
S    1    1.000000
   1.02741000E-01    1.00000000E+00 
S    1    1.000000
   3.60000000E-02    1.00000000E+00 
P    1    1.000000
   7.50000000E-01    1.00000000E+00 

5    0
S    1    1.000000
   4.56324000E+03    1.96665000E-03 
S    1    1.000000
   6.82024000E+02    1.52306000E-02 
S    1    1.000000
   1.54973000E+02    7.61269000E-02 
S    1    1.000000
   4.44553000E+01    2.60801000E-01 
S    1    1.000000
   1.30290000E+01    6.16462000E-01 
S    1    1.000000
   1.82773000E+00    2.21006000E-01 
SP   3    1.000000
   2.09642000E+01    1.14660000E-01   4.02487000E-02 
   4.80331000E+00    9.19999000E-01   2.37594000E-01 
   1.45933000E+00   -3.03068000E-03   8.15854000E-01 
SP   1    1.000000
   4.83456000E-01    1.00000000E+00   1.00000000E+00 
SP   1    1.000000
   1.45585000E-01    1.00000000E+00   1.00000000E+00 
SP   1    1.000000
   4.38000000E-02    1.00000000E+00   1.00000000E+00 
SP   1    1.000000
   1.31927711E-02    1.00000000E+00   1.00000000E+00 
D    1    1.000000
   6.26000000E-01    1.00000000E+00 

6    0
S    3    1.000000
   3.38650000E+01    2.54938000E-02 
   5.09479000E+00    1.90373000E-01 
   1.15879000E+00    8.52161000E-01 
S    1    1.000000
   3.25840000E-01    1.00000000E+00 
S    1    1.000000
   1.02741000E-01    1.00000000E+00 
S    1    1.000000
   3.60000000E-02    1.00000000E+00 
P    1    1.000000
   7.50000000E-01    1.00000000E+00 

7    0
S    1    1.000000
   4.56324000E+03    1.96665000E-03 
S    1    1.000000
   6.82024000E+02    1.52306000E-02 
S    1    1.000000
   1.54973000E+02    7.61269000E-02 
S    1    1.000000
   4.44553000E+01    2.60801000E-01 
S    1    1.000000
   1.30290000E+01    6.16462000E-01 
S    1    1.000000
   1.82773000E+00    2.21006000E-01 
SP   3    1.000000
   2.09642000E+01    1.14660000E-01   4.02487000E-02 
   4.80331000E+00    9.19999000E-01   2.37594000E-01 
   1.45933000E+00   -3.03068000E-03   8.15854000E-01 
SP   1    1.000000
   4.83456000E-01    1.00000000E+00   1.00000000E+00 
SP   1    1.000000
   1.45585000E-01    1.00000000E+00   1.00000000E+00 
SP   1    1.000000
   4.38000000E-02    1.00000000E+00   1.00000000E+00 
SP   1    1.000000
   1.31927711E-02    1.00000000E+00   1.00000000E+00 
D    1    1.000000
   6.26000000E-01    1.00000000E+00 

8    0
S    3    1.000000
   3.38650000E+01    2.54938000E-02 
   5.09479000E+00    1.90373000E-01 
   1.15879000E+00    8.52161000E-01 
S    1    1.000000
   3.25840000E-01    1.00000000E+00 
S    1    1.000000
   1.02741000E-01    1.00000000E+00 
S    1    1.000000
   3.60000000E-02    1.00000000E+00 
P    1    1.000000
   7.50000000E-01    1.00000000E+00 

9    0
S    1    1.000000
   4.56324000E+03    1.96665000E-03 
S    1    1.000000
   6.82024000E+02    1.52306000E-02 
S    1    1.000000
   1.54973000E+02    7.61269000E-02 
S    1    1.000000
   4.44553000E+01    2.60801000E-01 
S    1    1.000000
   1.30290000E+01    6.16462000E-01 
S    1    1.000000
   1.82773000E+00    2.21006000E-01 
SP   3    1.000000
   2.09642000E+01    1.14660000E-01   4.02487000E-02 
   4.80331000E+00    9.19999000E-01   2.37594000E-01 
   1.45933000E+00   -3.03068000E-03   8.15854000E-01 
SP   1    1.000000
   4.83456000E-01    1.00000000E+00   1.00000000E+00 
SP   1    1.000000
   1.45585000E-01    1.00000000E+00   1.00000000E+00 
SP   1    1.000000
   4.38000000E-02    1.00000000E+00   1.00000000E+00 
SP   1    1.000000
   1.31927711E-02    1.00000000E+00   1.00000000E+00 
D    1    1.000000
   6.26000000E-01    1.00000000E+00 

10    0
S    3    1.000000
   3.38650000E+01    2.54938000E-02 
   5.09479000E+00    1.90373000E-01 
   1.15879000E+00    8.52161000E-01 
S    1    1.000000
   3.25840000E-01    1.00000000E+00 
S    1    1.000000
   1.02741000E-01    1.00000000E+00 
S    1    1.000000
   3.60000000E-02    1.00000000E+00 
P    1    1.000000
   7.50000000E-01    1.00000000E+00 

11    0
S    1    1.000000
   4.56324000E+03    1.96665000E-03 
S    1    1.000000
   6.82024000E+02    1.52306000E-02 
S    1    1.000000
   1.54973000E+02    7.61269000E-02 
S    1    1.000000
   4.44553000E+01    2.60801000E-01 
S    1    1.000000
   1.30290000E+01    6.16462000E-01 
S    1    1.000000
   1.82773000E+00    2.21006000E-01 
SP   3    1.000000
   2.09642000E+01    1.14660000E-01   4.02487000E-02 
   4.80331000E+00    9.19999000E-01   2.37594000E-01 
   1.45933000E+00   -3.03068000E-03   8.15854000E-01 
SP   1    1.000000
   4.83456000E-01    1.00000000E+00   1.00000000E+00 
SP   1    1.000000
   1.45585000E-01    1.00000000E+00   1.00000000E+00 
SP   1    1.000000
   4.38000000E-02    1.00000000E+00   1.00000000E+00 
SP   1    1.000000
   1.31927711E-02    1.00000000E+00   1.00000000E+00 
D    1    1.000000
   6.26000000E-01    1.00000000E+00 

12    0
S    6    1.000000
   4.39700000E+05    8.13000000E-04 
   6.60300000E+04    6.28500000E-03 
   1.51400000E+04    3.19200000E-02 
   4.31700000E+03    1.28800000E-01 
   1.41400000E+03    3.94600000E-01 
   5.23900000E+02    5.41300000E-01 
S    3    1.000000
   5.23900000E+02    1.83100000E-01 
   2.07700000E+02    6.17600000E-01 
   8.65400000E+01    2.53800000E-01 
S    1    1.000000
   3.05200000E+01    1.00000000E+00 
S    1    1.000000
   1.29800000E+01    1.00000000E+00 
S    1    1.000000
   4.41200000E+00    1.00000000E+00 
S    1    1.000000
   1.86200000E+00    1.00000000E+00 
S    1    1.000000
   3.93200000E-01    1.00000000E+00 
S    1    1.000000
   1.40000000E-01    1.00000000E+00 
P    3    1.000000
   2.95700000E+03    2.22600000E-02 
   7.00300000E+02    1.80200000E-01 
   2.24600000E+02    8.62400000E-01 
P    3    1.000000
   8.25900000E+01    3.44000000E-01 
   3.31900000E+01    5.07100000E-01 
   1.42000000E+01    2.59000000E-01 
P    3    1.000000
   1.42000000E+01    7.96500000E-02 
   7.43800000E+00    3.73400000E-01 
   3.52600000E+00    6.04900000E-01 
P    1    1.000000
   1.59500000E+00    1.00000000E+00 
P    1    1.000000
   8.46200000E-01    1.00000000E+00 
P    1    1.000000
   3.18600000E-01    1.00000000E+00 
P    1    1.000000
   1.09600000E-01    1.00000000E+00 
D    4    1.000000
   1.34800000E+02    1.83100000E-02 
   3.63900000E+01    1.35000000E-01 
   1.21600000E+01    4.26100000E-01 
   4.34100000E+00    6.04300000E-01 
D    1    1.000000
   1.53500000E+00    1.00000000E+00 
SP   1    1.000000
   3.90000000E-02    1.00000000E+00   1.00000000E+00 
SP   1    1.000000
   1.17469880E-02    1.00000000E+00   1.00000000E+00 
D    1    1.000000
   4.15000000E-01    1.00000000E+00 

[MO]
Sym=X
Ene= -0.786854
Spin=Alpha
Occup=1
     1    3.788347674328e-05
     2    9.500123226787e-05
     3   -2.983995629162e-04
     4   -2.393111695264e-04
     5    9.243963000822e-05
     6   -2.647001301908e-17
     7    8.983327533962e-07
     8    1.389144928463e-05
     9    1.074524688560e-04
    10    5.365511936877e-04
    11    1.839384954897e-03
    12    4.364877577329e-03
    13    1.584108428689e-03
    14    5.737177656625e-03
    15    1.115669169322e-04
    16    1.415126322515e-15
    17    4.209925013259e-05
    18    3.611355713813e-04
    19    4.282333999291e-04
    20   -1.076398888811e-15
    21    3.323573960619e-04
    22   -7.591278917169e-04
    23   -6.127524445590e-04
    24    8.579700983250e-15
    25   -1.680938566658e-04
    26   -6.457884907057e-04
    27    1.115248816098e-04
    28   -4.525864494581e-14
    29    1.031739314505e-03
    30   -2.399408495621e-04
    31   -1.878739626772e-04
    32    2.332460412041e-13
    33   -7.292755809217e-04
    34   -1.357009990573e-04
    35    2.916620559904e-04
    36   -1.695386534373e-16
    37    6.295825488182e-05
    38    4.538157157268e-16
    39    7.289045814972e-08
    40    6.177804231802e-07
    41    2.694625539095e-06
    42    1.074043685026e-05
    43    1.103121904716e-05
    44   -5.523220796045e-05
    45    6.527111195162e-05
    46   -1.042969252425e-05
    47    5.839647157038e-16
    48   -3.104455172324e-05
    49    1.137379915570e-04
    50    4.882405933465e-05
    51    5.156207305628e-15
    52    2.146506454073e-04
    53    3.759259567008e-04
    54    4.202750794267e-04
    55   -4.203753006515e-15
    56   -6.029188383135e-05
    57    6.643388104142e-04
    58   -3.860631525004e-04
    59    4.809663004355e-14
    60    4.491471074001e-04
    61   -7.352954825316e-05
    62    1.481368893680e-04
    63   -2.095557273080e-13
    64    3.410584195704e-04
    65    8.198130436461e-05
    66    5.298657104027e-05
    67   -5.683805967787e-16
    68   -3.755083473408e-05
    69    9.533886527120e-16
    70   -2.794853003704e-07
    71    1.167211783929e-04
    72    1.642035000254e-05
    73   -1.819028605978e-05
    74    9.815748232273e-06
    75    7.718842456099e-16
    76    3.120267581163e-05
    77   -2.098558092906e-07
    78   -1.571373469697e-06
    79   -8.223525929721e-06
    80   -2.673894269096e-05
    81   -7.717032701947e-05
    82   -8.436653619890e-05
    83   -5.426528340914e-05
    84   -4.108322580465e-15
    85    2.887675160565e-15
    86   -8.195961624321e-06
    87    1.525490042606e-04
    88    1.823946236029e-14
    89    3.113047913443e-15
    90    6.290050566738e-05
    91   -8.979534971205e-04
    92    1.431643172330e-13
    93    8.501877077558e-15
    94   -4.090700189595e-04
    95    1.574694008890e-03
    96   -5.741504730046e-12
    97   -3.443196107178e-14
    98    2.546700740158e-05
    99    8.788401713544e-05
   100   -4.622982500889e-13
   101    1.686634147678e-13
   102   -2.287791187125e-04
   103   -2.701740961735e-05
   104   -1.112217147362e-14
   105    2.539902184589e-16
   106    1.669717320579e-05
   107   -8.999884614165e-16
   108    1.051122487869e-05
   109    5.995377603515e-06
   110   -1.639395456302e-04
   111   -5.644458252038e-05
   112   -1.220955093038e-14
   113    1.037790398294e-15
   114    1.390115386157e-05
   115    7.289045992129e-08
   116    6.177804383706e-07
   117    2.694625614054e-06
   118    1.074043709769e-05
   119    1.103121965391e-05
   120   -5.523220776031e-05
   121    6.527111274750e-05
   122    1.042969253206e-05
   123   -6.291662896406e-16
   124   -3.104455171178e-05
   125    1.137379916337e-04
   126   -4.882405934239e-05
   127    7.400739635799e-16
   128    2.146506453848e-04
   129    3.759259563240e-04
   130   -4.202750793819e-04
   131   -7.780602744988e-16
   132   -6.029188352588e-05
   133    6.643388246642e-04
   134    3.860631429181e-04
   135    2.655704576959e-14
   136    4.491471011249e-04
   137   -7.352954823837e-05
   138   -1.481368890129e-04
   139   -1.494029522230e-13
   140    3.410584187804e-04
   141    8.198130435895e-05
   142   -5.298657103436e-05
   143   -5.023957256208e-16
   144   -3.755083475145e-05
   145   -1.119665277143e-15
   146   -2.794853000529e-07
   147    1.167211784739e-04
   148    1.642035020946e-05
   149   -1.819028375479e-05
   150   -9.815748261779e-06
   151   -1.674314574637e-16
   152    3.120267580284e-05
   153    1.389144928572e-05
   154    1.074524688619e-04
   155    5.365511937300e-04
   156    1.839384955016e-03
   157    4.364877577681e-03
   158    1.584108428825e-03
   159    5.737177657027e-03
   160   -1.115669169418e-04
   161   -4.837096825615e-16
   162    4.209925013166e-05
   163    3.611355712847e-04
   164   -4.282333999513e-04
   165   -6.440908925733e-16
   166    3.323573960476e-04
   167   -7.591278913635e-04
   168    6.127524445616e-04
   169    6.461563351381e-16
   170   -1.680938564712e-04
   171   -6.457885144126e-04
   172   -1.115248701240e-04
   173   -2.576371985449e-14
   174    1.031739306882e-03
   175   -2.399408490099e-04
   176    1.878739622496e-04
   177    1.739872124758e-13
   178   -7.292755800133e-04
   179   -1.357009990494e-04
   180   -2.916620559989e-04
   181    4.468684489204e-16
   182    6.295825487744e-05
   183   -1.098718329540e-15
   184    3.788347675757e-05
   185    9.500123225915e-05
   186   -2.983995632736e-04
   187   -2.393111723958e-04
   188   -9.243963002229e-05
   189   -1.781590004901e-16
   190    8.983327395184e-07
   191    1.109223652562e-03
   192    8.587472615575e-03
   193    4.283603738551e-02
   194    1.470786129218e-01
   195    3.473796056973e-01
   196    1.263727554996e-01
   197    4.654202101839e-01
   198    7.925579969776e-15
   199    3.659648621128e-15
   200    1.128204166742e-03
   201    1.920555220658e-03
   202   -4.822379485221e-15
   203    9.565977293483e-18
   204   -7.362256784588e-04
   205    1.985998421088e-03
   206   -1.072990545163e-13
   207    1.751484380114e-15
   208   -1.265252051699e-04
   209   -1.898527322483e-03
   210    9.166948730630e-12
   211    3.249657397176e-14
   212   -1.490285803176e-03
   213   -1.922287505418e-04
   214    7.207844759630e-13
   215   -2.373013766172e-13
   216    9.254847522189e-04
   217   -5.934390909569e-05
   218   -3.697469574060e-16
   219   -4.413480080388e-16
   220    2.376317235919e-04
   221   -3.925567505147e-16
   222    1.060742729127e-06
   223    2.485167711917e-06
   224    2.163074732861e-06
   225   -3.922442158545e-05
   226    9.732051163829e-05
   227   -1.568399256357e-04
   228    1.121215393416e-04
   229    1.772550055463e-04
   230    3.809890851712e-16
   231    4.322761542934e-16
   232   -2.615679008455e-06
   233    8.965894913427e-15
   234    5.562601122316e-15
   235   -2.028645643223e-05
   236   -1.829172187042e-14
   237   -9.784705169307e-15
   238    4.898152662928e-05
   239    2.236542422914e-14
   240   -2.445825811153e-15
   241    6.131642878360e-05
   242   -4.189359638631e-14
   243   -5.125620953740e-15
   244    1.515348391474e-05
   245    5.061348670813e-14
   246    2.782406339766e-15
   247   -4.512242775515e-04
   248   -1.403300421039e-13
   249   -9.880395237779e-15
   250    1.316713875875e-04
   251   -8.803462900092e-07
   252   -9.640871007629e-15
   253   -6.082980323164e-16
   254    1.281707722638e-07
   255   -4.343631175513e-16
   256   -3.957456844922e-05
   257   -4.799434270722e-16
   258   -5.263388108115e-16
   259    3.119571081237e-07
   260    4.636157219106e-18
   261    1.280658714471e-03
   262   -2.790242397953e-13
   263    7.399167912918e-15
   264   -4.368551282084e-04
   265    5.950844301267e-04
   266   -2.683269584902e-13
   267    4.661831199631e-15
   268   -2.214680585751e-04
   269    2.806817803273e-04
   270    7.614252842031e-16
   271   -6.880555822633e-16
   272   -1.670583533001e-06
   273   -3.548518272370e-16
Sym=X
Ene= 0.786854
Spin=Alpha
Occup=0
     1   -7.473851066113e-13
     2   -1.006124315614e-11
     3    3.516795559101e-11
     4   -2.406529106304e-11
     5   -4.980394229292e-13
     6    1.139245293408e-02
     7    3.004987586254e-13
     8    6.796595940496e-16
     9    3.582116976847e-16
    10    5.360159163386e-15
    11    1.423706427658e-14
    12    6.196380710542e-14
    13    1.697925183657e-13
    14    2.662471910697e-14
    15    1.006960551929e-13
    16    1.036296109721e-01
    17   -6.814222039908e-13
    18   -1.363629186422e-12
    19   -2.913312194265e-12
    20    1.679183935649e-01
    21   -5.151738389864e-13
    22    1.492686119661e-11
    23    1.355411624486e-11
    24    3.084042076164e-01
    25    4.168789267384e-12
    26   -4.061001401281e-11
    27   -2.291583225374e-11
    28    2.178782380252e-01
    29   -1.419045762414e-10
    30    1.342619102316e-10
    31    1.274066037839e-09
    32    1.328064125619e-02
    33   -1.083299514928e-09
    34    1.136659122323e-13
    35    6.638960947456e-14
    36   -1.780165484011e-02
    37   -2.387065018036e-15
    38   -1.970298848559e-02
    39   -1.249977643092e-16
    40    3.270347165206e-15
    41    1.694078328982e-14
    42    5.616596010000e-14
    43    7.545182351432e-14
    44   -3.381593538264e-13
    45    5.132484619708e-13
    46    3.488819670033e-13
    47    3.444310040644e-02
    48    7.989008719961e-13
    49    2.401960688498e-12
    50    5.594676251058e-13
    51    5.552929095028e-02
    52    5.044274617821e-13
    53   -8.407555900192e-12
    54   -2.144117671574e-12
    55    6.350521139363e-02
    56   -3.093639341639e-13
    57   -3.157169824408e-10
    58   -8.609048432433e-11
    59    9.570406325727e-03
    60   -1.298231817660e-10
    61    1.899946387803e-10
    62   -7.315403062327e-10
    63   -2.909117052350e-02
    64    9.522656332403e-10
    65    2.176145461881e-13
    66   -5.474730701108e-13
    67    2.464251101420e-02
    68    3.248303607987e-13
    69   -1.421377036025e-02
    70    9.531738520229e-14
    71    6.187143711077e-12
    72   -1.016794144457e-11
    73   -2.007687250086e-10
    74   -2.778346599871e-13
    75    3.422597337632e-03
    76    5.647902439175e-14
    77   -4.727419807260e-16
    78   -1.981495248261e-15
    79   -1.375501646997e-14
    80   -4.406162670813e-14
    81   -9.416100723401e-14
    82    1.542280456654e-14
    83   -3.201971993400e-13
    84   -1.619800117648e-12
    85   -1.013720238450e-01
    86   -3.748185786014e-13
    87    1.537326049819e-13
    88   -5.843972381502e-12
    89   -1.638170707950e-01
    90   -8.427019306793e-13
    91    9.863447886928e-12
    92    1.386296471224e-11
    93   -2.599297469836e-01
    94    9.699435298810e-13
    95   -6.093063772280e-11
    96   -3.997640481368e-11
    97   -1.510789691912e-01
    98    1.094458511100e-10
    99    3.975664171321e-11
   100    4.286355482010e-10
   101    3.817792711666e-02
   102   -3.210462893083e-10
   103    1.134042481303e-13
   104    2.284560233995e-13
   105    3.357563545315e-03
   106   -1.235754304469e-13
   107   -4.436800670904e-12
   108    1.159475371950e-13
   109   -2.483573313048e-12
   110    1.042811738285e-11
   111    1.709329963759e-10
   112   -7.020758560194e-15
   113   -1.025007771916e-02
   114    3.579621517770e-15
   115   -4.266367769856e-16
   116   -4.143617125617e-15
   117   -2.278283709389e-14
   118   -6.817250808322e-14
   119   -1.591252136805e-13
   120    1.160235750393e-13
   121   -5.217012708433e-13
   122    1.092640161967e-12
   123    3.444310037488e-02
   124   -2.850474477559e-13
   125   -8.873169635790e-13
   126    1.746439335331e-12
   127    5.552929090610e-02
   128    7.415315156198e-13
   129   -1.567315944328e-12
   130    2.241390925471e-12
   131    6.350521122283e-02
   132    4.239232658930e-12
   133    2.795329957548e-10
   134   -8.599011698539e-11
   135    9.570406990332e-03
   136    6.082505752733e-11
   137   -1.572479091502e-10
   138   -5.617032619160e-10
   139   -2.909116426054e-02
   140   -3.179202901979e-10
   141   -3.151262710216e-13
   142   -3.848380165047e-13
   143    2.464251101785e-02
   144   -3.822922734611e-13
   145    1.421377036189e-02
   146    4.563690636263e-14
   147   -4.500130822173e-12
   148    1.071527189184e-11
   149    1.442868439888e-10
   150   -4.351433022538e-13
   151    3.422597337079e-03
   152    1.469788907488e-13
   153    5.824140205354e-16
   154    2.324294047553e-15
   155    5.463008351449e-15
   156    3.059435108051e-14
   157   -2.525237213176e-15
   158   -2.756943071927e-13
   159    3.603231558252e-13
   160    5.251647747264e-14
   161    1.036296110041e-01
   162    5.339251194733e-13
   163    1.522025144216e-12
   164   -3.089904883621e-12
   165    1.679183936093e-01
   166   -3.227631856820e-14
   167   -2.619058343305e-11
   168    1.741766744459e-11
   169    3.084042077870e-01
   170   -4.424864331569e-12
   171    9.747990097054e-11
   172    5.901244111531e-11
   173    2.178782373860e-01
   174    1.843271258240e-10
   175   -8.111845879136e-11
   176    1.130597234488e-09
   177    1.328063486665e-02
   178    5.325246315723e-10
   179    1.368083698944e-13
   180   -1.379131645066e-13
   181   -1.780165483607e-02
   182   -2.230029696780e-13
   183    1.970298848358e-02
   184    5.032936887758e-13
   185    1.162310880900e-11
   186   -4.654366312742e-11
   187   -1.092960210528e-10
   188   -6.007952001836e-13
   189    1.139245293459e-02
   190   -2.802344664447e-13
   191   -4.897056481455e-16
   192   -8.662765655639e-16
   193   -9.932569141729e-15
   194   -2.401403122425e-14
   195   -4.821835554022e-14
   196    1.393501740986e-13
   197   -2.434608928518e-13
   198   -7.880948070361e-14
   199   -2.953575611904e-01
   200    3.324203469127e-13
   201   -5.828726389311e-13
   202    1.575339192501e-13
   203   -3.815755421608e-01
   204    3.909765211589e-13
   205    1.039561959720e-11
   206    2.008108380440e-11
   207   -4.674442722512e-01
   208   -8.933880623883e-13
   209    3.443755194745e-11
   210   -1.961085767808e-10
   211   -2.504490404602e-01
   212   -3.200928753144e-11
   213    8.968150745155e-11
   214   -1.127598211125e-09
   215   -1.020562568359e-02
   216    3.712324257744e-10
   217   -7.273797921739e-14
   218   -1.331535594502e-13
   219   -2.375234766460e-02
   220    3.037562567380e-14
   221    3.971912043255e-12
   222    3.397199660308e-14
   223    1.108952755382e-13
   224   -3.039682367875e-13
   225   -3.564905207547e-13
   226    6.646718876177e-13
   227    1.181013967463e-12
   228   -2.790750476423e-12
   229    1.277319598180e-12
   230    7.131177584225e-15
   231    1.824579397401e-03
   232    2.342324019971e-15
   233    5.388250824775e-14
   234    1.521861941412e-02
   235    1.974168329953e-14
   236   -1.234907387429e-13
   237   -3.989461210630e-02
   238   -5.803236086667e-14
   239   -1.882085534827e-13
   240   -1.798151906316e-02
   241    3.097090248416e-14
   242    4.893240255135e-13
   243    3.958001798161e-02
   244   -1.082852874460e-13
   245   -1.180619411587e-12
   246    8.033927594497e-02
   247    7.203339855977e-13
   248    7.491451206752e-13
   249    1.258258082960e-01
   250   -1.065901596459e-12
   251   -4.074957568872e-14
   252    4.392793933757e-13
   253   -2.206290621648e-02
   254    4.520815947844e-14
   255    3.504325581696e-12
   256    8.381859871700e-15
   257    2.180977352128e-14
   258   -2.705700970928e-03
   259    1.920525519306e-14
   260    5.314297513136e-13
   261   -1.563041815373e-12
   262    1.323939322933e-11
   263    6.836686252173e-02
   264   -5.793758557243e-12
   265   -1.834331451711e-10
   266   -2.511479937289e-10
   267    4.958031493666e-03
   268    2.159676907282e-11
   269   -1.809356401813e-13
   270   -1.174443301288e-12
   271    4.468041074208e-02
   272   -1.690417223133e-13
   273   -9.487633929239e-12
[5D]
