Q-Chem Developer Version!
                  Welcome to Q-Chem
     A Quantum Leap Into The Future Of Chemistry


 Q-Chem 5.1, Q-Chem, Inc., Pleasanton, CA (2018)

 Yihan Shao,  Zhengting Gan,  E. Epifanovsky,  A. T. B. Gilbert,  M. Wormit,  
 J. Kussmann,  A. W. Lange,  A. Behn,  Jia Deng,  Xintian Feng,  D. Ghosh,  
 M. Goldey,  P. R. Horn,  L. D. Jacobson,  I. Kaliman,  T. Kus,  A. Landau,  
 Jie Liu,  E. I. Proynov,  R. M. Richard,  R. P. Steele,  E. J. Sundstrom,  
 H. L. Woodcock III,  P. M. Zimmerman,  D. Zuev,  B. Albrecht,  E. Alguire,  
 S. A. Baeppler,  D. Barton,  Z. Benda,  Y. A. Bernard,  E. J. Berquist,  
 K. B. Bravaya,  H. Burton,  D. Casanova,  Chun-Min Chang,  Yunqing Chen,  
 A. Chien,  K. D. Closser,  M. P. Coons,  S. Coriani,  S. Dasgupta,  
 A. L. Dempwolff,  M. Diedenhofen,  Hainam Do,  R. G. Edgar,  Po-Tung Fang,  
 S. Faraji,  S. Fatehi,  Qingguo Feng,  K. D. Fenk,  J. Fosso-Tande,  
 Qinghui Ge,  A. Ghysels,  G. Gidofalvi,  J. Gomes,  J. Gonthier,  A. Gunina,  
 D. Hait,  M. W. D. Hanson-Heine,  P. H. P. Harbach,  A. W. Hauser,  
 J. E. Herr,  E. G. Hohenstein,  Z. C. Holden,  Kerwin Hui,  B. C. Huynh,  
 T.-C. Jagau,  Hyunjun Ji,  B. Kaduk,  K. Khistyaev,  Jaehoon Kim,  
 P. Klunzinger,  K. Koh,  D. Kosenkov,  L. Koulias,  T. Kowalczyk,  
 C. M. Krauter,  A. Kunitsa,  Ka Un Lao,  A. Laurent,  K. V. Lawler,  
 Joonho Lee,  D. Lefrancois,  S. Lehtola,  D. S. Levine,  Yi-Pei Li,  
 You-Sheng Lin,  Fenglai Liu,  E. Livshits,  A. Luenser,  P. Manohar,  
 E. Mansoor,  S. F. Manzer,  Shan-Ping Mao,  Yuezhi Mao,  N. Mardirossian,  
 A. V. Marenich,  T. Markovich,  L. A. Martinez-Martinez,  S. A. Maurer,  
 N. J. Mayhall,  S. C. McKenzie,  J.-M. Mewes,  A. F. Morrison,  
 J. W. Mullinax,  K. Nanda,  T. S. Nguyen-Beck,  R. Olivares-Amaya,  
 J. A. Parkhill,  T. M. Perrine,  F. Plasser,  P. Pokhilko,  S. Prager,  
 A. Prociuk,  E. Ramos,  D. R. Rehn,  F. Rob,  M. Schneider,  N. Sergueev,  
 S. M. Sharada,  S. Sharma,  D. W. Small,  T. Stauch,  T. Stein,  
 Yu-Chuan Su,  A. J. W. Thom,  A. Tkatchenko,  T. Tsuchimochi,  N. M. Tubman,  
 L. Vogt,  M. L. Vidal,  O. Vydrov,  M. A. Watson,  J. Wenzel,  
 M. de Wergifosse,  T. A. Wesolowski,  A. White,  J. Witte,  A. Yamada,  
 Jun Yang,  K. Yao,  S. Yeganeh,  S. R. Yost,  Zhi-Qiang You,  A. Zech,  
 Igor Ying Zhang,  Xing Zhang,  Yan Zhao,  Ying Zhu,  B. R. Brooks,  
 G. K. L. Chan,  C. J. Cramer,  M. S. Gordon,  W. J. Hehre,  A. Klamt,  
 M. W. Schmidt,  C. D. Sherrill,  D. G. Truhlar,  A. Aspuru-Guzik,  R. Baer,  
 A. T. Bell,  N. A. Besley,  Jeng-Da Chai,  A. E. DePrince, III,  
 R. A. DiStasio Jr.,  A. Dreuw,  B. D. Dunietz,  T. R. Furlani,  
 Chao-Ping Hsu,  Yousung Jung,  Jing Kong,  D. S. Lambrecht,  WanZhen Liang,  
 C. Ochsenfeld,  V. A. Rassolov,  L. V. Slipchenko,  J. E. Subotnik,  
 T. Van Voorhis,  J. M. Herbert,  A. I. Krylov,  P. M. W. Gill,  M. Head-Gordon

 Contributors to earlier versions of Q-Chem not listed above: 
 R. D. Adamson,  B. Austin,  J. Baker,  G. J. O. Beran,  K. Brandhorst,  
 S. T. Brown,  E. F. C. Byrd,  A. K. Chakraborty,  C.-L. Cheng,  
 Siu Hung Chien,  D. M. Chipman,  D. L. Crittenden,  H. Dachsel,  
 R. J. Doerksen,  A. D. Dutoi,  L. Fusti-Molnar,  W. A. Goddard III,  
 A. Golubeva-Zadorozhnaya,  S. R. Gwaltney,  G. Hawkins,  A. Heyden,  
 S. Hirata,  G. Kedziora,  F. J. Keil,  C. Kelley,  Jihan Kim,  R. A. King,  
 R. Z. Khaliullin,  P. P. Korambath,  W. Kurlancheek,  A. M. Lee,  M. S. Lee,  
 S. V. Levchenko,  Ching Yeh Lin,  D. Liotard,  R. C. Lochan,  I. Lotan,  
 P. E. Maslen,  N. Nair,  D. P. O'Neill,  D. Neuhauser,  E. Neuscamman,  
 C. M. Oana,  R. Olson,  B. Peters,  R. Peverati,  P. A. Pieniazek,  
 Y. M. Rhee,  J. Ritchie,  M. A. Rohrdanz,  E. Rosta,  N. J. Russ,  
 H. F. Schaefer III,  N. E. Schultz,  N. Shenvi,  A. C. Simmonett,  A. Sodt,  
 D. Stuck,  K. S. Thanthiriwatte,  V. Vanovschi,  Tao Wang,  A. Warshel,  
 C. F. Williams,  Q. Wu,  X. Xu,  W. Zhang

 Please cite Q-Chem as follows:
 Y. Shao et al., Mol. Phys. 113, 184-215 (2015)
 DOI: 10.1080/00268976.2014.952696

 Q-Chem 5.1.1 for Intel X86 EM64T Linux

 Parts of Q-Chem use Armadillo 8.300.2 (Tropical Shenanigans).
 http://arma.sourceforge.net/

 Q-Chem begins on Wed Oct 24 04:53:50 2018  

node20
Host: 0

     Scratch files written to /scratch/krylov/qchem8102//
Core orbitals will be frozen
Input Ideriv = 1
Curr. Ideriv = -1
Max.  Ideriv = 1

Checking the input file for inconsistencies... 	...done.

--------------------------------------------------------------
User input:
--------------------------------------------------------------
$comment
RI-MP2/cc-pVTZ optimized geometry. EOM-IP calculations.
$end

$molecule
0 1
    H         2.4750347531    0.0000000000    0.0000000000
    C         1.3935929418    0.0000000000    0.0000000000
    C         0.6967964709    1.2068868901    0.0000000000
    H         1.2375173766    2.1434429715    0.0000000000
    C        -0.6967964709    1.2068868901    0.0000000000
    H        -1.2375173766    2.1434429715    0.0000000000
    C        -1.3935929418    0.0000000000    0.0000000000
    H        -2.4750347531    0.0000000000    0.0000000000
    C        -0.6967964709   -1.2068868901    0.0000000000
    H        -1.2375173766   -2.1434429715    0.0000000000
    C         0.6967964709   -1.2068868901    0.0000000000
    H         1.2375173766   -2.1434429715    0.0000000000
$end

$rem
   JOB_TYPE  =  SP
   BASIS  =  6-311(2+,+)G**
   METHOD  =  EOM-CCSD
   EE_STATES = [0,0,0,0,2,2,2,2] only bright transitions 
   CC_MEMORY = 80000   
   cc_trans_prop = 1
! use SP code 
  cc_single_prec=1
  eom_single_prec=1
  cc_sp_dm = 1
  cc_sp_t_conv = 4
  cc_sp_e_conv = 6
  cc_erase_dp_integrals = 1
$end

--------------------------------------------------------------
 ----------------------------------------------------------------
             Standard Nuclear Orientation (Angstroms)
    I     Atom           X                Y                Z
 ----------------------------------------------------------------
    1      H       2.4750347531     0.0000000000    -0.0000000000
    2      C       1.3935929418     0.0000000000    -0.0000000000
    3      C       0.6967964709     1.2068868901     0.0000000000
    4      H       1.2375173766     2.1434429715     0.0000000000
    5      C      -0.6967964709     1.2068868901     0.0000000000
    6      H      -1.2375173766     2.1434429715     0.0000000000
    7      C      -1.3935929418     0.0000000000     0.0000000000
    8      H      -2.4750347531     0.0000000000     0.0000000000
    9      C      -0.6967964709    -1.2068868901    -0.0000000000
   10      H      -1.2375173766    -2.1434429715    -0.0000000000
   11      C       0.6967964709    -1.2068868901    -0.0000000000
   12      H       1.2375173766    -2.1434429715    -0.0000000000
 ----------------------------------------------------------------
 Molecular Point Group                 D2h   NOp =  8
 Largest Abelian Subgroup              D2h   NOp =  8
 Nuclear Repulsion Energy =   203.7187449024 hartrees
 There are       21 alpha and       21 beta electrons
 Requested basis set is 6-311(2+,+)G(d,p)
 There are 72 shells and 198 basis functions
MEM_TOTAL is adjusted to CC_MEMORY + MEM_STATIC!
 Total memory of 80192MB is distributed as follows: 
   QALLOC including MEM_STATIC uses 192MB
   MEM_STATIC is set to 192MB
   CCMAN JOB total memory use is  80000MB
 Warning: actual memory use might exceed 80192MB

 Total QAlloc Memory Limit    192 MB
 Mega-Array Size       188 MB
 MEM_STATIC part       192 MB

                       Distance Matrix (Angstroms)
             H (  1)   C (  2)   C (  3)   H (  4)   C (  5)   H (  6)
   C (  2)  1.081442
   C (  3)  2.149118  1.393593
   H (  4)  2.475035  2.149118  1.081442
   C (  5)  3.393684  2.413774  1.393593  2.149118
   H (  6)  4.286886  3.393684  2.149118  2.475035  1.081442
   C (  7)  3.868628  2.787186  2.413774  3.393684  1.393593  2.149118
   H (  8)  4.950070  3.868628  3.393684  4.286886  2.149118  2.475035
   C (  9)  3.393684  2.413774  2.787186  3.868628  2.413774  3.393684
   H ( 10)  4.286886  3.393684  3.868628  4.950070  3.393684  4.286886
   C ( 11)  2.149118  1.393593  2.413774  3.393684  2.787186  3.868628
   H ( 12)  2.475035  2.149118  3.393684  4.286886  3.868628  4.950070
             C (  7)   H (  8)   C (  9)   H ( 10)   C ( 11)
   H (  8)  1.081442
   C (  9)  1.393593  2.149118
   H ( 10)  2.149118  2.475035  1.081442
   C ( 11)  2.413774  3.393684  1.393593  2.149118
   H ( 12)  3.393684  4.286886  2.149118  2.475035  1.081442

 A cutoff of  1.0D-14 yielded   2598 shell pairs
 There are     19875 function pairs (     21114 Cartesian)

 -------------------------------------------------------
 OpenMP Integral Computing Module                       
 Release: version 1.0, May 2013, Q-Chem Inc. Pittsburgh 
 -------------------------------------------------------
 Integral Job Info:
 Integral job number is                      11
 Integral operator is                         1
 short-range coefficients                     0
 long-range coefficients              100000000
 Omega coefficients                           0
 if combine SR and LR in K                    0
 Integral screening is                        0
 Integral computing path is                   2
 max size of driver memory is            800000
 size of driver memory is                593474
 size of scratch memory is              2361544
 max col of scratch BK array               1296
 max len of scratch array in speh3          155
 max len of scratch index in speh4           18
 max int batch size is                      520
 min int batch size is                       52
 fixed nKL is                                52
 max L of basis functions is                  2
 order of int derivative is                   0
 number of shells is                         72
 number of basis is                         204
 number of cartesian basis is               204
 number of contracted shell pairs          2598
 number of primitive shell pairs           6444
 maxK2 (contraction) of shell pair           36
 max number of K2 of shell pair               1
 max number of CS2 of shell pair            450
 max number of PS2 of shell pair            864
 mem total for path MDJ                  537338
 -------------------------------------------------------
 Smallest overlap matrix eigenvalue = 9.20E-09
 Linear dependence detected in AO basis
 Tighter screening thresholds may be required for diffuse basis sets
 Use S2THRESH > 14 and THRESH = 14 in case of SCF convergence issues
 Number of orthogonalized atomic orbitals = 191
 Maximum deviation from orthogonality = 1.557E-10

 Scale SEOQF with 1.000000e-01/1.000000e-01/1.000000e-01

 Standard Electronic Orientation quadrupole field applied
 Nucleus-field energy     =     0.0000000057 hartrees
 Guess from superposition of atomic densities
 Warning:  Energy on first SCF cycle will be non-variational
 SAD guess density has 42.000000 electrons

 -----------------------------------------------------------------------
  General SCF calculation program by
  Eric Jon Sundstrom, Paul Horn, Yuezhi Mao, Dmitri Zuev, Alec White,
  David Stuck, Shaama M.S., Shane Yost, Joonho Lee, David Small,
  Daniel Levine, Susi Lehtola, Hugh Burton, Evgeny Epifanovsky
 -----------------------------------------------------------------------
 Hartree-Fock
 using 8 threads for integral computing
 -------------------------------------------------------
 OpenMP Integral computing Module                
 Release: version 2.0, May 2017, Q-Chem Inc. Pleasanton 
 -------------------------------------------------------
 A restricted SCF calculation will be
 performed using DIIS
 SCF converges when DIIS error is below 1.0e-08
 ---------------------------------------
  Cycle       Energy         DIIS error
 ---------------------------------------
    1    -233.2567333622      4.73e-02  
    2    -230.6922243342      3.03e-03  
    3    -230.7514740271      8.27e-04  
    4    -230.7559291957      3.18e-04  
    5    -230.7564345567      3.14e-05  
    6    -230.7564452149      5.83e-06  
    7    -230.7564457139      1.69e-06  
    8    -230.7564457558      1.76e-07  
    9    -230.7564457564      2.25e-08  
   10    -230.7564457567      2.53e-09  Convergence criterion met
 ---------------------------------------
 SCF time:   CPU 13.27s  wall 2.00s 
 SCF   energy in the final basis set =     -230.7564457567
 Total energy in the final basis set =     -230.7564457567


 ------------------------------------------------------------------------------

   CCMAN2: suite of methods based on coupled cluster
           and equation of motion theories.

   Components:
   * libvmm-1.3-trunk
     by Evgeny Epifanovsky, Ilya Kaliman.
   * libtensor-2.5-trunk
     by Evgeny Epifanovsky, Michael Wormit, Dmitry Zuev, Sam Manzer, 
        Ilya Kaliman.
   * libcc-2.5-trunk
     by Evgeny Epifanovsky, Arik Landau, Tomasz Kus, Kirill Khistyaev, 
        Dmitry Zuev, Prashant Manohar, Xintian Feng, Anna Krylov, 
        Matthew Goldey, Alec White, Thomas Jagau, Kaushik Nanda, 
        Anastasia Gunina, Alexander Kunitsa, Joonho Lee.

   CCMAN original authors:
   Anna I. Krylov, C. David Sherrill, Steven R. Gwaltney,
   Edward F. C. Byrd (2000)
   Sergey V. Levchenko, Lyudmila V. Slipchenko, Tao Wang,
   Ana-Maria C. Cristian (2003)
   Piotr A. Pieniazek, C. Melania Oana, Evgeny Epifanovsky (2007)
   Prashant Manohar (2009)

 ------------------------------------------------------------------------------


 Allocating and initializing 80000MB of RAM...
 Calculation will run on 8 cores.


 Alpha MOs, Restricted
 -- Occupied --                  
-11.238 -11.238 -11.238 -11.236 -11.236 -11.236  -1.153  -1.017
  1 Ag    1 B3u   1 B2u   2 Ag    1 B1g   2 B3u   3 Ag    3 B3u                
 -1.017  -0.826  -0.826  -0.712  -0.645  -0.621  -0.590  -0.590
  2 B2u   4 Ag    2 B1g   5 Ag    4 B3u   3 B2u   5 B3u   4 B2u                
 -0.502  -0.496  -0.496  -0.337  -0.337
  1 B1u   6 Ag    3 B1g   1 B2g   1 B3g                                        
 -- Virtual --                   
  0.017   0.022   0.022   0.033   0.033   0.034   0.044   0.044
  7 Ag    6 B3u   5 B2u   8 Ag    4 B1g   2 B1u   2 B2g   2 B3g                
  0.049   0.054   0.056   0.056   0.057   0.067   0.067   0.069
  7 B3u   6 B2u   3 B1u   1 Au    9 Ag    8 B3u   7 B2u   3 B2g                
  0.070   0.070   0.084   0.093   0.093   0.103   0.103   0.114
 10 Ag    5 B1g  11 Ag    9 B3u   8 B2u  12 Ag    6 B1g   4 B1u                
  0.114   0.131   0.172   0.186   0.186   0.186   0.195   0.204
  2 Au   10 B3u   5 B1u   4 B2g   3 B3g   9 B2u  13 Ag   14 Ag                 
  0.204   0.225   0.225   0.225   0.237   0.239   0.239   0.247
  7 B1g  11 B3u  10 B2u   5 B2g  15 Ag    6 B1u   3 Au   16 Ag                 
  0.247   0.250   0.250   0.255   0.255   0.281   0.289   0.289
  8 B1g  12 B3u  11 B2u  13 B3u  12 B2u  14 B3u  17 Ag    9 B1g                
  0.303   0.339   0.374   0.413   0.426   0.426   0.455   0.455
 10 B1g  18 Ag    6 B2g  15 B3u  16 B3u  13 B2u  19 Ag   11 B1g                
  0.515   0.515   0.523   0.523   0.622   0.623   0.719   0.744
 20 Ag   12 B1g  17 B3u  14 B2u  21 Ag   15 B2u  18 B3u  19 B3u                
  0.744   0.751   0.752   0.758   0.758   0.785   0.785   0.833
 16 B2u   7 B1u  13 B1g  22 Ag   14 B1g   7 B2g   4 B3g  23 Ag                 
  0.836   0.836   0.891   0.896   0.941   0.941   0.962   0.962
  8 B1u   4 Au   20 B3u   8 B2g  21 B3u  17 B2u  24 Ag   15 B1g                
  0.997   1.017   1.017   1.068   1.068   1.109   1.131   1.138
 25 Ag   22 B3u  18 B2u  26 Ag   16 B1g  23 B3u  17 B1g  24 B3u                
  1.138   1.170   1.224   1.224   1.250   1.324   1.324   1.392
 19 B2u   9 B1u  27 Ag   18 B1g   5 B3g   9 B2g   6 B3g  10 B1u                
  1.392   1.503   1.562   1.720   1.794   1.794   1.800   1.829
  5 Au   25 B3u  28 Ag   20 B2u  26 B3u  21 B2u  29 Ag   10 B2g                
  1.848   1.848   1.912   1.912   1.936   1.936   1.993   2.056
 11 B1u   6 Au   19 B1g  30 Ag   22 B2u  27 B3u  12 B1u  11 B2g                
  2.056   2.112   2.112   2.132   2.239   2.239   2.239   2.253
  7 B3g  31 Ag   20 B1g  23 B2u   8 B3g  12 B2g  21 B1g  28 B3u                
  2.253   2.302   2.352   2.352   2.381   2.381   2.642   2.664
 24 B2u  29 B3u  22 B1g  32 Ag   13 B1u   7 Au   13 B2g   8 Au                 
  2.751   2.751   2.770   2.833   2.833   2.965   2.965   2.980
 33 Ag   23 B1g  34 Ag   30 B3u  25 B2u  26 B2u  31 B3u  32 B3u                
  3.008   3.036   3.036   3.036   3.047   3.047   3.082   3.209
 35 Ag   33 B3u  27 B2u  34 B3u  36 Ag   24 B1g  14 B1u  14 B2g                
  3.209   3.268   3.302   3.302   3.340   3.340   3.487   3.557
  9 B3g  25 B1g  15 B1u   9 Au   37 Ag   26 B1g  15 B2g  28 B2u                
  3.779   3.779   3.914   3.914   3.939   4.085   4.413   4.413
 27 B1g  38 Ag   35 B3u  29 B2u  39 Ag   36 B3u  40 Ag   28 B1g                
  4.498   4.576   4.576   5.279  24.754  25.144  25.144  25.263
 37 B3u  38 B3u  30 B2u  29 B1g  41 Ag   39 B3u  31 B2u  42 Ag                 
 25.263  25.368
 30 B1g  40 B3u                                                                

 Beta MOs, Restricted
 -- Occupied --                  
-11.238 -11.238 -11.238 -11.236 -11.236 -11.236  -1.153  -1.017
  1 Ag    1 B3u   1 B2u   2 Ag    1 B1g   2 B3u   3 Ag    3 B3u                
 -1.017  -0.826  -0.826  -0.712  -0.645  -0.621  -0.590  -0.590
  2 B2u   4 Ag    2 B1g   5 Ag    4 B3u   3 B2u   5 B3u   4 B2u                
 -0.502  -0.496  -0.496  -0.337  -0.337
  1 B1u   6 Ag    3 B1g   1 B2g   1 B3g                                        
 -- Virtual --                   
  0.017   0.022   0.022   0.033   0.033   0.034   0.044   0.044
  7 Ag    6 B3u   5 B2u   8 Ag    4 B1g   2 B1u   2 B2g   2 B3g                
  0.049   0.054   0.056   0.056   0.057   0.067   0.067   0.069
  7 B3u   6 B2u   3 B1u   1 Au    9 Ag    8 B3u   7 B2u   3 B2g                
  0.070   0.070   0.084   0.093   0.093   0.103   0.103   0.114
 10 Ag    5 B1g  11 Ag    9 B3u   8 B2u  12 Ag    6 B1g   4 B1u                
  0.114   0.131   0.172   0.186   0.186   0.186   0.195   0.204
  2 Au   10 B3u   5 B1u   4 B2g   3 B3g   9 B2u  13 Ag   14 Ag                 
  0.204   0.225   0.225   0.225   0.237   0.239   0.239   0.247
  7 B1g  11 B3u  10 B2u   5 B2g  15 Ag    6 B1u   3 Au   16 Ag                 
  0.247   0.250   0.250   0.255   0.255   0.281   0.289   0.289
  8 B1g  12 B3u  11 B2u  13 B3u  12 B2u  14 B3u  17 Ag    9 B1g                
  0.303   0.339   0.374   0.413   0.426   0.426   0.455   0.455
 10 B1g  18 Ag    6 B2g  15 B3u  16 B3u  13 B2u  19 Ag   11 B1g                
  0.515   0.515   0.523   0.523   0.622   0.623   0.719   0.744
 20 Ag   12 B1g  17 B3u  14 B2u  21 Ag   15 B2u  18 B3u  19 B3u                
  0.744   0.751   0.752   0.758   0.758   0.785   0.785   0.833
 16 B2u   7 B1u  13 B1g  22 Ag   14 B1g   7 B2g   4 B3g  23 Ag                 
  0.836   0.836   0.891   0.896   0.941   0.941   0.962   0.962
  8 B1u   4 Au   20 B3u   8 B2g  21 B3u  17 B2u  24 Ag   15 B1g                
  0.997   1.017   1.017   1.068   1.068   1.109   1.131   1.138
 25 Ag   22 B3u  18 B2u  26 Ag   16 B1g  23 B3u  17 B1g  24 B3u                
  1.138   1.170   1.224   1.224   1.250   1.324   1.324   1.392
 19 B2u   9 B1u  27 Ag   18 B1g   5 B3g   9 B2g   6 B3g  10 B1u                
  1.392   1.503   1.562   1.720   1.794   1.794   1.800   1.829
  5 Au   25 B3u  28 Ag   20 B2u  26 B3u  21 B2u  29 Ag   10 B2g                
  1.848   1.848   1.912   1.912   1.936   1.936   1.993   2.056
 11 B1u   6 Au   19 B1g  30 Ag   22 B2u  27 B3u  12 B1u  11 B2g                
  2.056   2.112   2.112   2.132   2.239   2.239   2.239   2.253
  7 B3g  31 Ag   20 B1g  23 B2u   8 B3g  12 B2g  21 B1g  28 B3u                
  2.253   2.302   2.352   2.352   2.381   2.381   2.642   2.664
 24 B2u  29 B3u  22 B1g  32 Ag   13 B1u   7 Au   13 B2g   8 Au                 
  2.751   2.751   2.770   2.833   2.833   2.965   2.965   2.980
 33 Ag   23 B1g  34 Ag   30 B3u  25 B2u  26 B2u  31 B3u  32 B3u                
  3.008   3.036   3.036   3.036   3.047   3.047   3.082   3.209
 35 Ag   33 B3u  27 B2u  34 B3u  36 Ag   24 B1g  14 B1u  14 B2g                
  3.209   3.268   3.302   3.302   3.340   3.340   3.487   3.557
  9 B3g  25 B1g  15 B1u   9 Au   37 Ag   26 B1g  15 B2g  28 B2u                
  3.779   3.779   3.914   3.914   3.939   4.085   4.413   4.413
 27 B1g  38 Ag   35 B3u  29 B2u  39 Ag   36 B3u  40 Ag   28 B1g                
  4.498   4.576   4.576   5.279  24.754  25.144  25.144  25.263
 37 B3u  38 B3u  30 B2u  29 B1g  41 Ag   39 B3u  31 B2u  42 Ag                 
 25.263  25.368
 30 B1g  40 B3u                                                                

 Occupation and symmetry of molecular orbitals

 Point group: D2h (8 irreducible representations).

                           Ag   B1g  B2g  B3g  Au   B1u  B2u  B3u   All 
 ------------------------------------------------------------------------
 All molecular orbitals:
  - Alpha                  42   30   15   9    9    15   31   40    191 
  - Beta                   42   30   15   9    9    15   31   40    191 
 ------------------------------------------------------------------------
 Alpha orbitals:
  - Frozen occupied        2    1    0    0    0    0    1    2     6   
  - Active occupied        4    2    1    1    0    1    3    3     15  
  - Active virtual         36   27   14   8    9    14   27   35    170 
  - Frozen virtual         0    0    0    0    0    0    0    0     0   
 ------------------------------------------------------------------------
 Beta orbitals:
  - Frozen occupied        2    1    0    0    0    0    1    2     6   
  - Active occupied        4    2    1    1    0    1    3    3     15  
  - Active virtual         36   27   14   8    9    14   27   35    170 
  - Frozen virtual         0    0    0    0    0    0    0    0     0   
 ------------------------------------------------------------------------

 Import integrals:   CPU 0.00 s  wall 0.00 s

 Import integrals:   CPU 157.92 s  wall 23.35 s

 MP2 amplitudes:   CPU 12.56 s  wall 11.48 s

Running a single precision version
I will use integrals, stored in single precision format
           CCSD T amplitudes will be solved using DIIS.

           Start     Size      MaxIter   EConv     TConv     
           3         7         100       1.00e-06  1.00e-04  
 ------------------------------------------------------------------------------
           Energy (a.u.)   Ediff      Tdiff       Comment
 ------------------------------------------------------------------------------
          -231.58431154                           
     1    -231.58855436   4.24e-03   9.14e-01     
     2    -231.61390718   2.54e-02   1.24e-01     
     3    -231.61484297   9.36e-04   4.25e-02     
     4    -231.61734135   2.50e-03   1.33e-02     Switched to DIIS steps.
     5    -231.61824212   9.01e-04   1.11e-02     
     6    -231.61825073   8.61e-06   2.18e-03     
     7    -231.61824249   8.24e-06   6.65e-04     
     8    -231.61824180   6.94e-07   1.56e-04     
     9    -231.61824191   1.10e-07   4.00e-05     
 ------------------------------------------------------------------------------
          -231.61824191                           CCSD T converged.

End of single precision
No iterations in double precision will be done
 SCF energy                 = -230.75644576
 MP2 energy                 = -231.58431095
 CCSD correlation energy     =   -0.86179627
 CCSD total energy           = -231.61824203

 CCSD  T1^2 = 0.0064  T2^2 = 0.3407  Leading amplitudes:

 Amplitude    Orbitals with energies
 -0.0217       1 (B3g) A                 ->    4 (B3g) A                  
              -0.3371                          0.7850                     
 -0.0217       1 (B3g) B                 ->    4 (B3g) B                  
              -0.3371                          0.7850                     
 -0.0217       1 (B2g) A                 ->    7 (B2g) A                  
              -0.3371                          0.7850                     
 -0.0217       1 (B2g) B                 ->    7 (B2g) B                  
              -0.3371                          0.7850                     

 Amplitude    Orbitals with energies
 -0.0672       1 (B3g) A     1 (B3g) B   ->    2 (Au) A      2 (Au) B     
              -0.3371       -0.3371            0.1142        0.1142       
  0.0672       1 (B3g) A     1 (B3g) B   ->    2 (Au) B      2 (Au) A     
              -0.3371       -0.3371            0.1142        0.1142       
  0.0672       1 (B3g) B     1 (B3g) A   ->    2 (Au) A      2 (Au) B     
              -0.3371       -0.3371            0.1142        0.1142       
 -0.0672       1 (B3g) B     1 (B3g) A   ->    2 (Au) B      2 (Au) A     
              -0.3371       -0.3371            0.1142        0.1142       

 Computing CCSD intemediates for later calculations in single precision
 Finished.

Running a single precision version
           CCSD Lambda amplitudes will be solved using DIIS.
           Start     Size      MaxIter   EConv     LConv     
           3         7         100       1.00e-06  1.00e-04  
 ------------------------------------------------------------------------------
            Enorm      Ldiff       Comment
 ------------------------------------------------------------------------------
     1     5.31e-02   4.36e-02     
     2     8.79e-03   5.93e-04     
     3     3.01e-03   1.80e-03     
     4     1.12e-03   2.47e-04     Switched to DIIS steps.
     5     3.17e-04   3.07e-04     
     6     9.96e-05   6.28e-05     
     7     3.16e-05   1.70e-05     
     8     8.49e-06   4.72e-06     
     9     2.67e-06   9.02e-07     
    10     9.22e-07   2.12e-07     
 ------------------------------------------------------------------------------
                                   CCSD Lambda converged.

No iterations in double precision will be done
 CCSD calculation:   CPU 393.39 s  wall 91.77 s

        Solving for EOMEE-CCSD Au singlet states.

Current path: /canmo/eomee_ccsd/rhfref/singlets/5/
/guess/1/energy
/guess/1/r0
/guess/1/r1
/guess/1/r2
/guess/1/right_root_conv
/guess/1/rresnorm
/guess/1/total_energy
/guess/2/energy
/guess/2/r0
/guess/2/r1
/guess/2/r2
/guess/2/right_root_conv
/guess/2/rresnorm
/guess/2/total_energy
/guess/nstates
Running a single precision version
        EOMEE-CCSD/MP2 right amplitudes will be solved using Davidson.
 ------------------------------------------------------------------------------
      Iter ConvRoots NVecs ResNorm Current eigenvalues (eV)
 ------------------------------------------------------------------------------
      0    0      2     9.35e-02   9.7303   9.7792   
      1    0      4     3.67e-02   7.9820   8.0210   
      2    0      6     7.06e-03   7.4099   7.4653   
      3    0      8     2.80e-03   7.2007   7.2824   
      4    0      10    2.05e-03   7.0880   7.1804   
      5    0      12    5.41e-04   7.0453   7.1369   
      6    0      14    3.52e-05   7.0415   7.1343   
      7    2      16    5.28e-06   7.0417*  7.1343*  

     Davidson procedure converged

 EOMEE transition 1/Au
 Total energy = -231.35946358 a.u.  Excitation energy = 7.0417 eV.
 R0^2 = 0.0000  R1^2 = 0.9358  R2^2 = 0.0642  Res^2 = 6.11e-06
 Conv-d = yes

 Amplitude    Transitions between orbitals
 -0.3889       1 (B2g) A                 ->    5 (B2u) A                  
 -0.3889       1 (B2g) B                 ->    5 (B2u) B                  
  0.3889       1 (B3g) A                 ->    6 (B3u) A                  
  0.3889       1 (B3g) B                 ->    6 (B3u) B                  
  0.1939       1 (B2g) A                 ->    8 (B2u) A                  
  0.1939       1 (B2g) B                 ->    8 (B2u) B                  
  0.1939       1 (B3g) A                 ->    9 (B3u) A                  
  0.1939       1 (B3g) B                 ->    9 (B3u) B                  
 -0.1888       1 (B2g) A                 ->    7 (B2u) A                  
 -0.1888       1 (B2g) B                 ->    7 (B2u) B                  
  0.1888       1 (B3g) A                 ->    8 (B3u) A                  
  0.1888       1 (B3g) B                 ->    8 (B3u) B                  

              Summary of significant orbitals:

               Number  Type             Irrep      Energy
               20      Occ  Alpha       1 (B2g)     -0.3371
               21      Occ  Alpha       1 (B3g)     -0.3371
               20      Occ  Beta        1 (B2g)     -0.3371
               21      Occ  Beta        1 (B3g)     -0.3371
               24      Vir  Alpha       5 (B2u)      0.0216
               36      Vir  Alpha       7 (B2u)      0.0667
               42      Vir  Alpha       8 (B2u)      0.0928
               23      Vir  Alpha       6 (B3u)      0.0216
               35      Vir  Alpha       8 (B3u)      0.0667
               41      Vir  Alpha       9 (B3u)      0.0928
               24      Vir  Beta        5 (B2u)      0.0216
               36      Vir  Beta        7 (B2u)      0.0667
               42      Vir  Beta        8 (B2u)      0.0928
               23      Vir  Beta        6 (B3u)      0.0216
               35      Vir  Beta        8 (B3u)      0.0667
               41      Vir  Beta        9 (B3u)      0.0928


 EOMEE transition 2/Au
 Total energy = -231.35605952 a.u.  Excitation energy = 7.1343 eV.
 R0^2 = 0.0000  R1^2 = 0.9327  R2^2 = 0.0673  Res^2 = 4.44e-06
 Conv-d = yes

 Amplitude    Transitions between orbitals
  0.3989       1 (B3g) A                 ->    6 (B3u) A                  
  0.3989       1 (B3g) B                 ->    6 (B3u) B                  
  0.3989       1 (B2g) A                 ->    5 (B2u) A                  
  0.3989       1 (B2g) B                 ->    5 (B2u) B                  
  0.1849       1 (B3g) A                 ->    8 (B3u) A                  
  0.1849       1 (B3g) B                 ->    8 (B3u) B                  
  0.1849       1 (B2g) A                 ->    7 (B2u) A                  
  0.1849       1 (B2g) B                 ->    7 (B2u) B                  
  0.1830       1 (B3g) A                 ->    9 (B3u) A                  
  0.1830       1 (B3g) B                 ->    9 (B3u) B                  
 -0.1830       1 (B2g) A                 ->    8 (B2u) A                  
 -0.1830       1 (B2g) B                 ->    8 (B2u) B                  

              Summary of significant orbitals:

               Number  Type             Irrep      Energy
               20      Occ  Alpha       1 (B2g)     -0.3371
               21      Occ  Alpha       1 (B3g)     -0.3371
               20      Occ  Beta        1 (B2g)     -0.3371
               21      Occ  Beta        1 (B3g)     -0.3371
               24      Vir  Alpha       5 (B2u)      0.0216
               36      Vir  Alpha       7 (B2u)      0.0667
               42      Vir  Alpha       8 (B2u)      0.0928
               23      Vir  Alpha       6 (B3u)      0.0216
               35      Vir  Alpha       8 (B3u)      0.0667
               41      Vir  Alpha       9 (B3u)      0.0928
               24      Vir  Beta        5 (B2u)      0.0216
               36      Vir  Beta        7 (B2u)      0.0667
               42      Vir  Beta        8 (B2u)      0.0928
               23      Vir  Beta        6 (B3u)      0.0216
               35      Vir  Beta        8 (B3u)      0.0667
               41      Vir  Beta        9 (B3u)      0.0928


Running a single precision version
      EOM-CCSD/MP2 left amplitudes will be solved using Davidson.
        Amplitudes will be solved using MOM  algorithm.
     Hard-coded thresholds: 
     LinDepThresh=1.00e-15  NormThresh=1.00e-06  ReorthogonThresh=1.00e-02

      Roots     MaxVec    MaxIter   Precond   Conv      Shift    
      2         120       60        1         1.00e-05  0.00e+00  
 ------------------------------------------------------------------------------
      Iter ConvRoots NVecs ResNorm Current eigenvalues (eV)
 ------------------------------------------------------------------------------
      0    0      2     3.22e-03   7.0417   7.1344   
      1    0      4     2.04e-03   7.0415   7.1341   
      2    0      6     1.49e-04   7.0415   7.1341   
      3    2      8     8.29e-06   7.0414*  7.1341*  

     Davidson procedure converged

        Solving for EOMEE-CCSD B1u singlet states.

Current path: /canmo/eomee_ccsd/rhfref/singlets/6/
/guess/1/energy
/guess/1/r0
/guess/1/r1
/guess/1/r2
/guess/1/right_root_conv
/guess/1/rresnorm
/guess/1/total_energy
/guess/2/energy
/guess/2/r0
/guess/2/r1
/guess/2/r2
/guess/2/right_root_conv
/guess/2/rresnorm
/guess/2/total_energy
/guess/nstates
Running a single precision version
        EOMEE-CCSD/MP2 right amplitudes will be solved using Davidson.
 ------------------------------------------------------------------------------
      Iter ConvRoots NVecs ResNorm Current eigenvalues (eV)
 ------------------------------------------------------------------------------
      0    0      2     9.31e-02   9.6839   9.7303   
      1    0      4     3.65e-02   7.9457   7.9820   
      2    0      6     7.55e-03   7.3599   7.4099   
      3    0      8     3.26e-03   7.1294   7.2007   
      4    0      10    2.01e-03   7.0118   7.0880   
      5    0      12    4.84e-04   6.9716   7.0453   
      6    0      14    2.78e-05   6.9669   7.0415   
      7    2      16    6.32e-06   6.9673*  7.0417*  

     Davidson procedure converged

 EOMEE transition 1/B1u
 Total energy = -231.36219988 a.u.  Excitation energy = 6.9673 eV.
 R0^2 = 0.0000  R1^2 = 0.9397  R2^2 = 0.0603  Res^2 = 6.52e-06
 Conv-d = yes

 Amplitude    Transitions between orbitals
  0.3826       1 (B2g) A                 ->    6 (B3u) A                  
  0.3826       1 (B2g) B                 ->    6 (B3u) B                  
 -0.3826       1 (B3g) A                 ->    5 (B2u) A                  
 -0.3826       1 (B3g) B                 ->    5 (B2u) B                  
  0.2031       1 (B2g) A                 ->    9 (B3u) A                  
  0.2031       1 (B2g) B                 ->    9 (B3u) B                  
  0.2031       1 (B3g) A                 ->    8 (B2u) A                  
  0.2031       1 (B3g) B                 ->    8 (B2u) B                  
  0.1878       1 (B2g) A                 ->    8 (B3u) A                  
  0.1878       1 (B2g) B                 ->    8 (B3u) B                  
 -0.1878       1 (B3g) A                 ->    7 (B2u) A                  
 -0.1878       1 (B3g) B                 ->    7 (B2u) B                  

              Summary of significant orbitals:

               Number  Type             Irrep      Energy
               20      Occ  Alpha       1 (B2g)     -0.3371
               21      Occ  Alpha       1 (B3g)     -0.3371
               20      Occ  Beta        1 (B2g)     -0.3371
               21      Occ  Beta        1 (B3g)     -0.3371
               24      Vir  Alpha       5 (B2u)      0.0216
               36      Vir  Alpha       7 (B2u)      0.0667
               42      Vir  Alpha       8 (B2u)      0.0928
               23      Vir  Alpha       6 (B3u)      0.0216
               35      Vir  Alpha       8 (B3u)      0.0667
               41      Vir  Alpha       9 (B3u)      0.0928
               24      Vir  Beta        5 (B2u)      0.0216
               36      Vir  Beta        7 (B2u)      0.0667
               42      Vir  Beta        8 (B2u)      0.0928
               23      Vir  Beta        6 (B3u)      0.0216
               35      Vir  Beta        8 (B3u)      0.0667
               41      Vir  Beta        9 (B3u)      0.0928


 EOMEE transition 2/B1u
 Total energy = -231.35946348 a.u.  Excitation energy = 7.0417 eV.
 R0^2 = 0.0000  R1^2 = 0.9358  R2^2 = 0.0642  Res^2 = 6.12e-06
 Conv-d = yes

 Amplitude    Transitions between orbitals
  0.3889       1 (B3g) A                 ->    5 (B2u) A                  
  0.3889       1 (B3g) B                 ->    5 (B2u) B                  
  0.3889       1 (B2g) A                 ->    6 (B3u) A                  
  0.3889       1 (B2g) B                 ->    6 (B3u) B                  
 -0.1939       1 (B3g) A                 ->    8 (B2u) A                  
 -0.1939       1 (B3g) B                 ->    8 (B2u) B                  
  0.1939       1 (B2g) A                 ->    9 (B3u) A                  
  0.1939       1 (B2g) B                 ->    9 (B3u) B                  
  0.1888       1 (B3g) A                 ->    7 (B2u) A                  
  0.1888       1 (B3g) B                 ->    7 (B2u) B                  
  0.1888       1 (B2g) A                 ->    8 (B3u) A                  
  0.1888       1 (B2g) B                 ->    8 (B3u) B                  

              Summary of significant orbitals:

               Number  Type             Irrep      Energy
               20      Occ  Alpha       1 (B2g)     -0.3371
               21      Occ  Alpha       1 (B3g)     -0.3371
               20      Occ  Beta        1 (B2g)     -0.3371
               21      Occ  Beta        1 (B3g)     -0.3371
               24      Vir  Alpha       5 (B2u)      0.0216
               36      Vir  Alpha       7 (B2u)      0.0667
               42      Vir  Alpha       8 (B2u)      0.0928
               23      Vir  Alpha       6 (B3u)      0.0216
               35      Vir  Alpha       8 (B3u)      0.0667
               41      Vir  Alpha       9 (B3u)      0.0928
               24      Vir  Beta        5 (B2u)      0.0216
               36      Vir  Beta        7 (B2u)      0.0667
               42      Vir  Beta        8 (B2u)      0.0928
               23      Vir  Beta        6 (B3u)      0.0216
               35      Vir  Beta        8 (B3u)      0.0667
               41      Vir  Beta        9 (B3u)      0.0928


Running a single precision version
      EOM-CCSD/MP2 left amplitudes will be solved using Davidson.
        Amplitudes will be solved using MOM  algorithm.
     Hard-coded thresholds: 
     LinDepThresh=1.00e-15  NormThresh=1.00e-06  ReorthogonThresh=1.00e-02

      Roots     MaxVec    MaxIter   Precond   Conv      Shift    
      2         120       60        1         1.00e-05  0.00e+00  
 ------------------------------------------------------------------------------
      Iter ConvRoots NVecs ResNorm Current eigenvalues (eV)
 ------------------------------------------------------------------------------
      0    0      2     3.04e-03   6.9673   7.0417   
      1    0      4     1.77e-03   6.9671   7.0415   
      2    0      6     1.11e-04   6.9671   7.0415   
      3    2      8     6.23e-06   6.9671*  7.0414*  

     Davidson procedure converged

        Solving for EOMEE-CCSD B2u singlet states.

Current path: /canmo/eomee_ccsd/rhfref/singlets/7/
/guess/1/energy
/guess/1/r0
/guess/1/r1
/guess/1/r2
/guess/1/right_root_conv
/guess/1/rresnorm
/guess/1/total_energy
/guess/2/energy
/guess/2/r0
/guess/2/r1
/guess/2/r2
/guess/2/right_root_conv
/guess/2/rresnorm
/guess/2/total_energy
/guess/3/energy
/guess/3/r0
/guess/3/r1
/guess/3/r2
/guess/3/right_root_conv
/guess/3/rresnorm
/guess/3/total_energy
/guess/nstates
Running a single precision version
        EOMEE-CCSD/MP2 right amplitudes will be solved using Davidson.
 ------------------------------------------------------------------------------
      Iter ConvRoots NVecs ResNorm Current eigenvalues (eV)
 ------------------------------------------------------------------------------
      0    0      3     9.23e-02   9.5942   10.6613   
      1    0      5     3.46e-02   7.8744   8.9488   
      2    0      7     7.76e-03   7.3550   8.3731   
      3    0      9     3.67e-02   7.0340   7.2484   
      4    0      11    1.18e-02   5.6913   7.2135   
      5    0      13    2.47e-03   5.2564   7.1954   
      6    0      15    4.75e-04   5.2156   7.1882   
      7    0      17    2.45e-04   5.2105   7.1762   
      8    1      19    1.47e-04   5.2100*  7.1628   
      9    1      20    1.10e-05   5.2100*  7.1577   
      10   2      21    4.15e-06   5.2100*  7.1580*  

     Davidson procedure converged

 EOMEE transition 1/B2u
 Total energy = -231.42677932 a.u.  Excitation energy = 5.2100 eV.
 R0^2 = 0.0000  R1^2 = 0.8974  R2^2 = 0.1026  Res^2 = 3.81e-06
 Conv-d = yes

 Amplitude    Transitions between orbitals
 -0.4423       1 (B2g) A                 ->    2 (Au) A                   
 -0.4423       1 (B2g) B                 ->    2 (Au) B                   
 -0.4423       1 (B3g) A                 ->    4 (B1u) A                  
 -0.4423       1 (B3g) B                 ->    4 (B1u) B                  
  0.1463       1 (B3g) A                 ->    6 (B1u) A                  
  0.1463       1 (B3g) B                 ->    6 (B1u) B                  
 -0.1463       1 (B2g) A                 ->    3 (Au) A                   
 -0.1463       1 (B2g) B                 ->    3 (Au) B                   

              Summary of significant orbitals:

               Number  Type             Irrep      Energy
               20      Occ  Alpha       1 (B2g)     -0.3371
               21      Occ  Alpha       1 (B3g)     -0.3371
               20      Occ  Beta        1 (B2g)     -0.3371
               21      Occ  Beta        1 (B3g)     -0.3371
               46      Vir  Alpha       2 (Au)      0.1142
               60      Vir  Alpha       3 (Au)      0.2392
               45      Vir  Alpha       4 (B1u)      0.1142
               59      Vir  Alpha       6 (B1u)      0.2392
               46      Vir  Beta        2 (Au)      0.1142
               60      Vir  Beta        3 (Au)      0.2392
               45      Vir  Beta        4 (B1u)      0.1142
               59      Vir  Beta        6 (B1u)      0.2392


 EOMEE transition 2/B2u
 Total energy = -231.35519062 a.u.  Excitation energy = 7.1580 eV.
 R0^2 = 0.0000  R1^2 = 0.9368  R2^2 = 0.0632  Res^2 = 4.50e-06
 Conv-d = yes

 Amplitude    Transitions between orbitals
 -0.5900       1 (B3g) A                 ->    2 (B1u) A                  
 -0.5900       1 (B3g) B                 ->    2 (B1u) B                  
  0.2188       1 (B3g) A                 ->    5 (B1u) A                  
  0.2188       1 (B3g) B                 ->    5 (B1u) B                  
  0.1736       1 (B3g) A                 ->    4 (B1u) A                  
  0.1736       1 (B3g) B                 ->    4 (B1u) B                  
 -0.1736       1 (B2g) A                 ->    2 (Au) A                   
 -0.1736       1 (B2g) B                 ->    2 (Au) B                   

              Summary of significant orbitals:

               Number  Type             Irrep      Energy
               20      Occ  Alpha       1 (B2g)     -0.3371
               21      Occ  Alpha       1 (B3g)     -0.3371
               20      Occ  Beta        1 (B2g)     -0.3371
               21      Occ  Beta        1 (B3g)     -0.3371
               46      Vir  Alpha       2 (Au)      0.1142
               27      Vir  Alpha       2 (B1u)      0.0344
               45      Vir  Alpha       4 (B1u)      0.1142
               48      Vir  Alpha       5 (B1u)      0.1722
               46      Vir  Beta        2 (Au)      0.1142
               27      Vir  Beta        2 (B1u)      0.0344
               45      Vir  Beta        4 (B1u)      0.1142
               48      Vir  Beta        5 (B1u)      0.1722


Running a single precision version
      EOM-CCSD/MP2 left amplitudes will be solved using Davidson.
        Amplitudes will be solved using MOM  algorithm.
     Hard-coded thresholds: 
     LinDepThresh=1.00e-15  NormThresh=1.00e-06  ReorthogonThresh=1.00e-02

      Roots     MaxVec    MaxIter   Precond   Conv      Shift    
      2         120       60        1         1.00e-05  0.00e+00  
 ------------------------------------------------------------------------------
      Iter ConvRoots NVecs ResNorm Current eigenvalues (eV)
 ------------------------------------------------------------------------------
      0    0      2     4.92e-03   5.2099   7.1580   
      1    0      4     2.19e-03   5.2099   7.1578   
      2    0      6     1.67e-04   5.2100   7.1579   
      3    0      8     1.60e-05   5.2100   7.1578   
      4    2      10    2.14e-06   5.2100*  7.1578*  

     Davidson procedure converged

        Solving for EOMEE-CCSD B3u singlet states.

Current path: /canmo/eomee_ccsd/rhfref/singlets/8/
/guess/1/energy
/guess/1/r0
/guess/1/r1
/guess/1/r2
/guess/1/right_root_conv
/guess/1/rresnorm
/guess/1/total_energy
/guess/2/energy
/guess/2/r0
/guess/2/r1
/guess/2/r2
/guess/2/right_root_conv
/guess/2/rresnorm
/guess/2/total_energy
/guess/3/energy
/guess/3/r0
/guess/3/r1
/guess/3/r2
/guess/3/right_root_conv
/guess/3/rresnorm
/guess/3/total_energy
/guess/nstates
Running a single precision version
        EOMEE-CCSD/MP2 right amplitudes will be solved using Davidson.
 ------------------------------------------------------------------------------
      Iter ConvRoots NVecs ResNorm Current eigenvalues (eV)
 ------------------------------------------------------------------------------
      0    0      3     9.22e-02   9.5942   10.6638   
      1    0      5     3.46e-02   7.8744   8.9565   
      2    0      7     5.90e-03   7.3552   8.4329   
      3    0      9     7.30e-03   7.2483   8.1053   
      4    0      11    1.33e-02   7.1669   7.2135   
      5    0      13    3.01e-03   6.7166   7.1954   
      6    0      15    5.70e-04   6.6517   7.1881   
      7    0      17    3.18e-04   6.6396   7.1764   
      8    0      19    1.59e-04   6.6391   7.1629   
      9    1      21    9.70e-06   6.6385*  7.1577   
      10   2      22    2.67e-06   6.6385*  7.1580*  

     Davidson procedure converged

 EOMEE transition 1/B3u
 Total energy = -231.37428116 a.u.  Excitation energy = 6.6385 eV.
 R0^2 = 0.0000  R1^2 = 0.9449  R2^2 = 0.0551  Res^2 = 8.42e-07
 Conv-d = yes

 Amplitude    Transitions between orbitals
 -0.4570       1 (B2g) A                 ->    4 (B1u) A                  
 -0.4570       1 (B2g) B                 ->    4 (B1u) B                  
  0.4570       1 (B3g) A                 ->    2 (Au) A                   
  0.4570       1 (B3g) B                 ->    2 (Au) B                   
  0.1070       1 (B3g) A                 ->    3 (Au) A                   
  0.1070       1 (B3g) B                 ->    3 (Au) B                   
  0.1070       1 (B2g) A                 ->    6 (B1u) A                  
  0.1070       1 (B2g) B                 ->    6 (B1u) B                  
  0.1054       1 (B3g) A                 ->    1 (Au) A                   
  0.1054       1 (B3g) B                 ->    1 (Au) B                   
  0.1054       1 (B2g) A                 ->    3 (B1u) A                  
  0.1054       1 (B2g) B                 ->    3 (B1u) B                  

              Summary of significant orbitals:

               Number  Type             Irrep      Energy
               20      Occ  Alpha       1 (B2g)     -0.3371
               21      Occ  Alpha       1 (B3g)     -0.3371
               20      Occ  Beta        1 (B2g)     -0.3371
               21      Occ  Beta        1 (B3g)     -0.3371
               33      Vir  Alpha       1 (Au)      0.0555
               46      Vir  Alpha       2 (Au)      0.1142
               60      Vir  Alpha       3 (Au)      0.2392
               32      Vir  Alpha       3 (B1u)      0.0555
               45      Vir  Alpha       4 (B1u)      0.1142
               59      Vir  Alpha       6 (B1u)      0.2392
               33      Vir  Beta        1 (Au)      0.0555
               46      Vir  Beta        2 (Au)      0.1142
               60      Vir  Beta        3 (Au)      0.2392
               32      Vir  Beta        3 (B1u)      0.0555
               45      Vir  Beta        4 (B1u)      0.1142
               59      Vir  Beta        6 (B1u)      0.2392


 EOMEE transition 2/B3u
 Total energy = -231.35519032 a.u.  Excitation energy = 7.1580 eV.
 R0^2 = 0.0000  R1^2 = 0.9368  R2^2 = 0.0632  Res^2 = 4.49e-06
 Conv-d = yes

 Amplitude    Transitions between orbitals
 -0.5900       1 (B2g) A                 ->    2 (B1u) A                  
 -0.5900       1 (B2g) B                 ->    2 (B1u) B                  
  0.2188       1 (B2g) A                 ->    5 (B1u) A                  
  0.2188       1 (B2g) B                 ->    5 (B1u) B                  
 -0.1736       1 (B3g) A                 ->    2 (Au) A                   
 -0.1736       1 (B3g) B                 ->    2 (Au) B                   
 -0.1736       1 (B2g) A                 ->    4 (B1u) A                  
 -0.1736       1 (B2g) B                 ->    4 (B1u) B                  

              Summary of significant orbitals:

               Number  Type             Irrep      Energy
               20      Occ  Alpha       1 (B2g)     -0.3371
               21      Occ  Alpha       1 (B3g)     -0.3371
               20      Occ  Beta        1 (B2g)     -0.3371
               21      Occ  Beta        1 (B3g)     -0.3371
               46      Vir  Alpha       2 (Au)      0.1142
               27      Vir  Alpha       2 (B1u)      0.0344
               45      Vir  Alpha       4 (B1u)      0.1142
               48      Vir  Alpha       5 (B1u)      0.1722
               46      Vir  Beta        2 (Au)      0.1142
               27      Vir  Beta        2 (B1u)      0.0344
               45      Vir  Beta        4 (B1u)      0.1142
               48      Vir  Beta        5 (B1u)      0.1722


Running a single precision version
      EOM-CCSD/MP2 left amplitudes will be solved using Davidson.
        Amplitudes will be solved using MOM  algorithm.
     Hard-coded thresholds: 
     LinDepThresh=1.00e-15  NormThresh=1.00e-06  ReorthogonThresh=1.00e-02

      Roots     MaxVec    MaxIter   Precond   Conv      Shift    
      2         120       60        1         1.00e-05  0.00e+00  
 ------------------------------------------------------------------------------
      Iter ConvRoots NVecs ResNorm Current eigenvalues (eV)
 ------------------------------------------------------------------------------
      0    0      2     4.15e-03   6.6385   7.1580   
      1    0      4     2.04e-03   6.6386   7.1578   
      2    0      6     1.18e-04   6.6387   7.1579   
      3    0      8     1.76e-05   6.6387   7.1578   
      4    2      10    3.87e-06   6.6387*  7.1578*  

     Davidson procedure converged

 EOMEE-CCSD calculation:   CPU 1623.95 s  wall 340.36 s


 Start computing the transition properties

 ------------------------------------------------------------------------------
 State A: ccsd: 0/Ag
 State B: eomee_ccsd/rhfref/singlets: 1/Au
 Transition dipole moment (a.u.):
   A->B: 0.000000 (X 0.000000, Y 0.000000, Z 0.000000)
   B->A: 0.000000 (X 0.000000, Y 0.000000, Z 0.000000)
 Oscillator strength (a.u.): 0.000000
 Norm of one-particle transition density matrix:
   A->B: 0.925430;   B->A: 0.957735
   ||gamma^AB||*||gamma^BA||: 0.886316

 ------------------------------------------------------------------------------
 State A: ccsd: 0/Ag
 State B: eomee_ccsd/rhfref/singlets: 2/Au
 Transition dipole moment (a.u.):
   A->B: 0.000000 (X 0.000000, Y 0.000000, Z 0.000000)
   B->A: 0.000000 (X 0.000000, Y 0.000000, Z 0.000000)
 Oscillator strength (a.u.): 0.000000
 Norm of one-particle transition density matrix:
   A->B: 0.923899;   B->A: 0.955209
   ||gamma^AB||*||gamma^BA||: 0.882517

 ------------------------------------------------------------------------------
 State A: ccsd: 0/Ag
 State B: eomee_ccsd/rhfref/singlets: 1/B1u
 Transition dipole moment (a.u.):
   A->B: 0.575419 (X 0.000000, Y 0.000000, Z -0.575419)
   B->A: 0.596416 (X 0.000000, Y 0.000000, Z -0.596416)
 Oscillator strength (a.u.): 0.058581
 Norm of one-particle transition density matrix:
   A->B: 0.927482;   B->A: 0.960704
   ||gamma^AB||*||gamma^BA||: 0.891035

 ------------------------------------------------------------------------------
 State A: ccsd: 0/Ag
 State B: eomee_ccsd/rhfref/singlets: 2/B1u
 Transition dipole moment (a.u.):
   A->B: 0.000021 (X 0.000000, Y 0.000000, Z 0.000021)
   B->A: 0.000023 (X 0.000000, Y 0.000000, Z 0.000023)
 Oscillator strength (a.u.): 0.000000
 Norm of one-particle transition density matrix:
   A->B: 0.925430;   B->A: 0.957735
   ||gamma^AB||*||gamma^BA||: 0.886317

 ------------------------------------------------------------------------------
 State A: ccsd: 0/Ag
 State B: eomee_ccsd/rhfref/singlets: 1/B2u
 Transition dipole moment (a.u.):
   A->B: 0.000004 (X 0.000000, Y 0.000004, Z 0.000000)
   B->A: 0.000008 (X 0.000000, Y 0.000008, Z 0.000000)
 Oscillator strength (a.u.): 0.000000
 Norm of one-particle transition density matrix:
   A->B: 0.885747;   B->A: 0.936258
   ||gamma^AB||*||gamma^BA||: 0.829287

 ------------------------------------------------------------------------------
 State A: ccsd: 0/Ag
 State B: eomee_ccsd/rhfref/singlets: 2/B2u
 Transition dipole moment (a.u.):
   A->B: 0.983088 (X 0.000000, Y -0.983088, Z 0.000000)
   B->A: 1.041582 (X 0.000000, Y -1.041582, Z 0.000000)
 Oscillator strength (a.u.): 0.179571
 Norm of one-particle transition density matrix:
   A->B: 0.925475;   B->A: 0.958878
   ||gamma^AB||*||gamma^BA||: 0.887418

 ------------------------------------------------------------------------------
 State A: ccsd: 0/Ag
 State B: eomee_ccsd/rhfref/singlets: 1/B3u
 Transition dipole moment (a.u.):
   A->B: 0.000009 (X -0.000009, Y 0.000000, Z 0.000000)
   B->A: 0.000005 (X -0.000005, Y 0.000000, Z 0.000000)
 Oscillator strength (a.u.): 0.000000
 Norm of one-particle transition density matrix:
   A->B: 0.908367;   B->A: 0.968617
   ||gamma^AB||*||gamma^BA||: 0.879860

 ------------------------------------------------------------------------------
 State A: ccsd: 0/Ag
 State B: eomee_ccsd/rhfref/singlets: 2/B3u
 Transition dipole moment (a.u.):
   A->B: 0.983104 (X -0.983104, Y 0.000000, Z 0.000000)
   B->A: 1.041610 (X -1.041610, Y 0.000000, Z 0.000000)
 Oscillator strength (a.u.): 0.179579
 Norm of one-particle transition density matrix:
   A->B: 0.925476;   B->A: 0.958879
   ||gamma^AB||*||gamma^BA||: 0.887420


 All requested transition properties have been computed

 Transition Properties:   CPU 47.96 s  wall 11.59 s

 Total ccman2 time:   CPU 2254.91 s  wall 482.96 s


 --------------------------------------------------------------
             Orbital Energies (a.u.) and Symmetries
 --------------------------------------------------------------

 Alpha MOs, Restricted
 -- Occupied --                  
-11.238 -11.238 -11.238 -11.236 -11.236 -11.236  -1.153  -1.017
  1 Ag    1 B3u   1 B2u   2 Ag    1 B1g   2 B3u   3 Ag    3 B3u                
 -1.017  -0.826  -0.826  -0.712  -0.645  -0.621  -0.590  -0.590
  2 B2u   4 Ag    2 B1g   5 Ag    4 B3u   3 B2u   5 B3u   4 B2u                
 -0.502  -0.496  -0.496  -0.337  -0.337
  1 B1u   6 Ag    3 B1g   1 B2g   1 B3g                                        
 -- Virtual --                   
  0.017   0.022   0.022   0.033   0.033   0.034   0.044   0.044
  7 Ag    6 B3u   5 B2u   8 Ag    4 B1g   2 B1u   2 B2g   2 B3g                
  0.049   0.054   0.056   0.056   0.057   0.067   0.067   0.069
  7 B3u   6 B2u   3 B1u   1 Au    9 Ag    8 B3u   7 B2u   3 B2g                
  0.070   0.070   0.084   0.093   0.093   0.103   0.103   0.114
 10 Ag    5 B1g  11 Ag    9 B3u   8 B2u  12 Ag    6 B1g   4 B1u                
  0.114   0.131   0.172   0.186   0.186   0.186   0.195   0.204
  2 Au   10 B3u   5 B1u   4 B2g   3 B3g   9 B2u  13 Ag   14 Ag                 
  0.204   0.225   0.225   0.225   0.237   0.239   0.239   0.247
  7 B1g  11 B3u  10 B2u   5 B2g  15 Ag    6 B1u   3 Au   16 Ag                 
  0.247   0.250   0.250   0.255   0.255   0.281   0.289   0.289
  8 B1g  12 B3u  11 B2u  13 B3u  12 B2u  14 B3u  17 Ag    9 B1g                
  0.303   0.339   0.374   0.413   0.426   0.426   0.455   0.455
 10 B1g  18 Ag    6 B2g  15 B3u  16 B3u  13 B2u  19 Ag   11 B1g                
  0.515   0.515   0.523   0.523   0.622   0.623   0.719   0.744
 20 Ag   12 B1g  17 B3u  14 B2u  21 Ag   15 B2u  18 B3u  19 B3u                
  0.744   0.751   0.752   0.758   0.758   0.785   0.785   0.833
 16 B2u   7 B1u  13 B1g  22 Ag   14 B1g   7 B2g   4 B3g  23 Ag                 
  0.836   0.836   0.891   0.896   0.941   0.941   0.962   0.962
  8 B1u   4 Au   20 B3u   8 B2g  21 B3u  17 B2u  24 Ag   15 B1g                
  0.997   1.017   1.017   1.068   1.068   1.109   1.131   1.138
 25 Ag   22 B3u  18 B2u  26 Ag   16 B1g  23 B3u  17 B1g  24 B3u                
  1.138   1.170   1.224   1.224   1.250   1.324   1.324   1.392
 19 B2u   9 B1u  27 Ag   18 B1g   5 B3g   9 B2g   6 B3g  10 B1u                
  1.392   1.503   1.562   1.720   1.794   1.794   1.800   1.829
  5 Au   25 B3u  28 Ag   20 B2u  26 B3u  21 B2u  29 Ag   10 B2g                
  1.848   1.848   1.912   1.912   1.936   1.936   1.993   2.056
 11 B1u   6 Au   19 B1g  30 Ag   22 B2u  27 B3u  12 B1u  11 B2g                
  2.056   2.112   2.112   2.132   2.239   2.239   2.239   2.253
  7 B3g  31 Ag   20 B1g  23 B2u   8 B3g  12 B2g  21 B1g  28 B3u                
  2.253   2.302   2.352   2.352   2.381   2.381   2.642   2.664
 24 B2u  29 B3u  22 B1g  32 Ag   13 B1u   7 Au   13 B2g   8 Au                 
  2.751   2.751   2.770   2.833   2.833   2.965   2.965   2.980
 33 Ag   23 B1g  34 Ag   30 B3u  25 B2u  26 B2u  31 B3u  32 B3u                
  3.008   3.036   3.036   3.036   3.047   3.047   3.082   3.209
 35 Ag   33 B3u  27 B2u  34 B3u  36 Ag   24 B1g  14 B1u  14 B2g                
  3.209   3.268   3.302   3.302   3.340   3.340   3.487   3.557
  9 B3g  25 B1g  15 B1u   9 Au   37 Ag   26 B1g  15 B2g  28 B2u                
  3.779   3.779   3.914   3.914   3.939   4.085   4.413   4.413
 27 B1g  38 Ag   35 B3u  29 B2u  39 Ag   36 B3u  40 Ag   28 B1g                
  4.498   4.576   4.576   5.279  24.754  25.144  25.144  25.263
 37 B3u  38 B3u  30 B2u  29 B1g  41 Ag   39 B3u  31 B2u  42 Ag                 
 25.263  25.368
 30 B1g  40 B3u                                                                

 Beta MOs, Restricted
 -- Occupied --                  
-11.238 -11.238 -11.238 -11.236 -11.236 -11.236  -1.153  -1.017
  1 Ag    1 B3u   1 B2u   2 Ag    1 B1g   2 B3u   3 Ag    3 B3u                
 -1.017  -0.826  -0.826  -0.712  -0.645  -0.621  -0.590  -0.590
  2 B2u   4 Ag    2 B1g   5 Ag    4 B3u   3 B2u   5 B3u   4 B2u                
 -0.502  -0.496  -0.496  -0.337  -0.337
  1 B1u   6 Ag    3 B1g   1 B2g   1 B3g                                        
 -- Virtual --                   
  0.017   0.022   0.022   0.033   0.033   0.034   0.044   0.044
  7 Ag    6 B3u   5 B2u   8 Ag    4 B1g   2 B1u   2 B2g   2 B3g                
  0.049   0.054   0.056   0.056   0.057   0.067   0.067   0.069
  7 B3u   6 B2u   3 B1u   1 Au    9 Ag    8 B3u   7 B2u   3 B2g                
  0.070   0.070   0.084   0.093   0.093   0.103   0.103   0.114
 10 Ag    5 B1g  11 Ag    9 B3u   8 B2u  12 Ag    6 B1g   4 B1u                
  0.114   0.131   0.172   0.186   0.186   0.186   0.195   0.204
  2 Au   10 B3u   5 B1u   4 B2g   3 B3g   9 B2u  13 Ag   14 Ag                 
  0.204   0.225   0.225   0.225   0.237   0.239   0.239   0.247
  7 B1g  11 B3u  10 B2u   5 B2g  15 Ag    6 B1u   3 Au   16 Ag                 
  0.247   0.250   0.250   0.255   0.255   0.281   0.289   0.289
  8 B1g  12 B3u  11 B2u  13 B3u  12 B2u  14 B3u  17 Ag    9 B1g                
  0.303   0.339   0.374   0.413   0.426   0.426   0.455   0.455
 10 B1g  18 Ag    6 B2g  15 B3u  16 B3u  13 B2u  19 Ag   11 B1g                
  0.515   0.515   0.523   0.523   0.622   0.623   0.719   0.744
 20 Ag   12 B1g  17 B3u  14 B2u  21 Ag   15 B2u  18 B3u  19 B3u                
  0.744   0.751   0.752   0.758   0.758   0.785   0.785   0.833
 16 B2u   7 B1u  13 B1g  22 Ag   14 B1g   7 B2g   4 B3g  23 Ag                 
  0.836   0.836   0.891   0.896   0.941   0.941   0.962   0.962
  8 B1u   4 Au   20 B3u   8 B2g  21 B3u  17 B2u  24 Ag   15 B1g                
  0.997   1.017   1.017   1.068   1.068   1.109   1.131   1.138
 25 Ag   22 B3u  18 B2u  26 Ag   16 B1g  23 B3u  17 B1g  24 B3u                
  1.138   1.170   1.224   1.224   1.250   1.324   1.324   1.392
 19 B2u   9 B1u  27 Ag   18 B1g   5 B3g   9 B2g   6 B3g  10 B1u                
  1.392   1.503   1.562   1.720   1.794   1.794   1.800   1.829
  5 Au   25 B3u  28 Ag   20 B2u  26 B3u  21 B2u  29 Ag   10 B2g                
  1.848   1.848   1.912   1.912   1.936   1.936   1.993   2.056
 11 B1u   6 Au   19 B1g  30 Ag   22 B2u  27 B3u  12 B1u  11 B2g                
  2.056   2.112   2.112   2.132   2.239   2.239   2.239   2.253
  7 B3g  31 Ag   20 B1g  23 B2u   8 B3g  12 B2g  21 B1g  28 B3u                
  2.253   2.302   2.352   2.352   2.381   2.381   2.642   2.664
 24 B2u  29 B3u  22 B1g  32 Ag   13 B1u   7 Au   13 B2g   8 Au                 
  2.751   2.751   2.770   2.833   2.833   2.965   2.965   2.980
 33 Ag   23 B1g  34 Ag   30 B3u  25 B2u  26 B2u  31 B3u  32 B3u                
  3.008   3.036   3.036   3.036   3.047   3.047   3.082   3.209
 35 Ag   33 B3u  27 B2u  34 B3u  36 Ag   24 B1g  14 B1u  14 B2g                
  3.209   3.268   3.302   3.302   3.340   3.340   3.487   3.557
  9 B3g  25 B1g  15 B1u   9 Au   37 Ag   26 B1g  15 B2g  28 B2u                
  3.779   3.779   3.914   3.914   3.939   4.085   4.413   4.413
 27 B1g  38 Ag   35 B3u  29 B2u  39 Ag   36 B3u  40 Ag   28 B1g                
  4.498   4.576   4.576   5.279  24.754  25.144  25.144  25.263
 37 B3u  38 B3u  30 B2u  29 B1g  41 Ag   39 B3u  31 B2u  42 Ag                 
 25.263  25.368
 30 B1g  40 B3u                                                                
 --------------------------------------------------------------

          Ground-State Mulliken Net Atomic Charges

     Atom                 Charge (a.u.)
  ----------------------------------------
      1 H                     0.198875
      2 C                    -0.198875
      3 C                    -0.198875
      4 H                     0.198875
      5 C                    -0.198875
      6 H                     0.198875
      7 C                    -0.198875
      8 H                     0.198875
      9 C                    -0.198875
     10 H                     0.198875
     11 C                    -0.198875
     12 H                     0.198875
  ----------------------------------------
  Sum of atomic charges =     0.000000

 -----------------------------------------------------------------
                    Cartesian Multipole Moments
 -----------------------------------------------------------------
    Charge (ESU x 10^10)
                 0.0000
    Dipole Moment (Debye)
         X      -0.0000      Y       0.0000      Z       0.0000
       Tot       0.0000
    Quadrupole Moments (Debye-Ang)
        XX     -31.9213     XY      -0.0000     YY     -31.9213
        XZ       0.0000     YZ       0.0000     ZZ     -41.3018
    Octopole Moments (Debye-Ang^2)
       XXX      -0.0000    XXY      -0.0000    XYY       0.0000
       YYY       0.0000    XXZ       0.0000    XYZ       0.0000
       YYZ      -0.0000    XZZ      -0.0000    YZZ      -0.0000
       ZZZ       0.0000
    Hexadecapole Moments (Debye-Ang^3)
      XXXX    -270.4910   XXXY      -0.0000   XXYY     -90.1637
      XYYY      -0.0000   YYYY    -270.4910   XXXZ       0.0000
      XXYZ      -0.0000   XYYZ       0.0000   YYYZ       0.0000
      XXZZ     -66.1120   XYZZ      -0.0000   YYZZ     -66.1120
      XZZZ       0.0000   YZZZ       0.0000   ZZZZ     -52.4167
 -----------------------------------------------------------------
Archival summary:
1\1\node20\SP\ProcedureUnspecified\BasisUnspecified\66\krylov\WedOct2405:02:192018WedOct2405:02:192018\0\\#,ProcedureUnspecified,BasisUnspecified,\\0,1\C\H,1,1.08144\C,1,1.39359,2,120\H,3,1.08144,1,120,2,-0,0\C,3,1.39359,1,120,2,180,0\H,5,1.08144,3,120,1,180,0\C,5,1.39359,3,120,1,-0,0\H,7,1.08144,5,120,3,180,0\C,7,1.39359,5,120,3,0,0\H,9,1.08144,7,120,5,180,0\C,9,1.39359,7,120,5,-0,0\H,11,1.08144,9,120,7,-180,0\\HF=-230.756446\\@

 Total job time:  509.00s(wall), 2291.70s(cpu) 
 Wed Oct 24 05:02:19 2018

        *************************************************************
        *                                                           *
        *  Thank you very much for using Q-Chem.  Have a nice day.  *
        *                                                           *
        *************************************************************


