n-62-23-14 10.66.23
Q-Chem Developer Version! Running on 10.66.23.*
                  Welcome to Q-Chem
     A Quantum Leap Into The Future Of Chemistry


 Q-Chem 5.1, Q-Chem, Inc., Pleasanton, CA (2018)

 Yihan Shao,  Zhengting Gan,  E. Epifanovsky,  A. T. B. Gilbert,  M. Wormit,  
 J. Kussmann,  A. W. Lange,  A. Behn,  Jia Deng,  Xintian Feng,  D. Ghosh,  
 M. Goldey,  P. R. Horn,  L. D. Jacobson,  I. Kaliman,  T. Kus,  A. Landau,  
 Jie Liu,  E. I. Proynov,  R. M. Richard,  R. P. Steele,  E. J. Sundstrom,  
 H. L. Woodcock III,  P. M. Zimmerman,  D. Zuev,  B. Albrecht,  E. Alguire,  
 S. A. Baeppler,  D. Barton,  Z. Benda,  Y. A. Bernard,  E. J. Berquist,  
 K. B. Bravaya,  H. Burton,  D. Casanova,  Chun-Min Chang,  Yunqing Chen,  
 A. Chien,  K. D. Closser,  M. P. Coons,  S. Coriani,  S. Dasgupta,  
 A. L. Dempwolff,  M. Diedenhofen,  Hainam Do,  R. G. Edgar,  Po-Tung Fang,  
 S. Faraji,  S. Fatehi,  Qingguo Feng,  K. D. Fenk,  J. Fosso-Tande,  
 Qinghui Ge,  A. Ghysels,  G. Gidofalvi,  J. Gomes,  J. Gonthier,  A. Gunina,  
 M. W. D. Hanson-Heine,  P. H. P. Harbach,  A. W. Hauser,  J. E. Herr,  
 E. G. Hohenstein,  Z. C. Holden,  Kerwin Hui,  T.-C. Jagau,  Hyunjun Ji,  
 B. Kaduk,  K. Khistyaev,  Jaehoon Kim,  P. Klunzinger,  K. Koh,  
 D. Kosenkov,  L. Koulias,  T. Kowalczyk,  C. M. Krauter,  A. Kunitsa,  
 Ka Un Lao,  A. Laurent,  K. V. Lawler,  Joonho Lee,  D. Lefrancois,  
 S. Lehtola,  D. S. Levine,  Yi-Pei Li,  You-Sheng Lin,  Fenglai Liu,  
 E. Livshits,  A. Luenser,  P. Manohar,  E. Mansoor,  S. F. Manzer,  
 Shan-Ping Mao,  Yuezhi Mao,  N. Mardirossian,  A. V. Marenich,  
 T. Markovich,  L. A. Martinez-Martinez,  S. A. Maurer,  N. J. Mayhall,  
 S. C. McKenzie,  J.-M. Mewes,  A. F. Morrison,  J. W. Mullinax,  K. Nanda,  
 T. S. Nguyen-Beck,  R. Olivares-Amaya,  J. A. Parkhill,  T. M. Perrine,  
 F. Plasser,  P. Pokhilko,  S. Prager,  A. Prociuk,  E. Ramos,  D. R. Rehn,  
 F. Rob,  M. Schneider,  N. Sergueev,  S. M. Sharada,  S. Sharma,  
 D. W. Small,  T. Stauch,  T. Stein,  Yu-Chuan Su,  A. J. W. Thom,  
 A. Tkatchenko,  T. Tsuchimochi,  N. M. Tubman,  L. Vogt,  M. L. Vidal,  
 O. Vydrov,  M. A. Watson,  J. Wenzel,  M. de Wergifosse,  T. A. Wesolowski,  
 A. White,  J. Witte,  A. Yamada,  Jun Yang,  K. Yao,  S. Yeganeh,  
 S. R. Yost,  Zhi-Qiang You,  A. Zech,  Igor Ying Zhang,  Xing Zhang,  
 Yan Zhao,  Ying Zhu,  B. R. Brooks,  G. K. L. Chan,  C. J. Cramer,  
 M. S. Gordon,  W. J. Hehre,  A. Klamt,  M. W. Schmidt,  C. D. Sherrill,  
 D. G. Truhlar,  A. Aspuru-Guzik,  R. Baer,  A. T. Bell,  N. A. Besley,  
 Jeng-Da Chai,  R. A. DiStasio Jr.,  A. Dreuw,  B. D. Dunietz,  
 T. R. Furlani,  Chao-Ping Hsu,  Yousung Jung,  Jing Kong,  D. S. Lambrecht,  
 WanZhen Liang,  C. Ochsenfeld,  V. A. Rassolov,  L. V. Slipchenko,  
 J. E. Subotnik,  T. Van Voorhis,  J. M. Herbert,  A. I. Krylov,  
 P. M. W. Gill,  M. Head-Gordon

 Contributors to earlier versions of Q-Chem not listed above: 
 R. D. Adamson,  B. Austin,  J. Baker,  G. J. O. Beran,  K. Brandhorst,  
 S. T. Brown,  E. F. C. Byrd,  A. K. Chakraborty,  C.-L. Cheng,  
 Siu Hung Chien,  D. M. Chipman,  D. L. Crittenden,  H. Dachsel,  
 R. J. Doerksen,  A. D. Dutoi,  L. Fusti-Molnar,  W. A. Goddard III,  
 A. Golubeva-Zadorozhnaya,  S. R. Gwaltney,  G. Hawkins,  A. Heyden,  
 S. Hirata,  G. Kedziora,  F. J. Keil,  C. Kelley,  Jihan Kim,  R. A. King,  
 R. Z. Khaliullin,  P. P. Korambath,  W. Kurlancheek,  A. M. Lee,  M. S. Lee,  
 S. V. Levchenko,  Ching Yeh Lin,  D. Liotard,  R. C. Lochan,  I. Lotan,  
 P. E. Maslen,  N. Nair,  D. P. O'Neill,  D. Neuhauser,  E. Neuscamman,  
 C. M. Oana,  R. Olson,  B. Peters,  R. Peverati,  P. A. Pieniazek,  
 Y. M. Rhee,  J. Ritchie,  M. A. Rohrdanz,  E. Rosta,  N. J. Russ,  
 H. F. Schaefer III,  N. E. Schultz,  N. Shenvi,  A. C. Simmonett,  A. Sodt,  
 D. Stuck,  K. S. Thanthiriwatte,  V. Vanovschi,  Tao Wang,  A. Warshel,  
 C. F. Williams,  Q. Wu,  X. Xu,  W. Zhang

 Please cite Q-Chem as follows:
 Y. Shao et al., Mol. Phys. 113, 184-215 (2015)
 DOI: 10.1080/00268976.2014.952696

 Q-Chem 5.1.0 for Intel X86 EM64T Linux

 Parts of Q-Chem use Armadillo 8.300.2 (Tropical Shenanigans).
 http://arma.sourceforge.net/

 Q-Chem begins on Mon Nov 26 12:03:37 2018  

Host: 
0

     Scratch files written to /work1/malop/qc_7474124.hnode2//

Checking the input file for inconsistencies... 	...done.

--------------------------------------------------------------
User input:
--------------------------------------------------------------
$commen
RI-MP2/cc-pVTZ optimized geometry. 
TR-NEXAFS
basis = 6-311(2+,+)G** (ucC)
$end

$molecule
0 1
H       2.4750347531     0.0000000000    -0.0000000000
C       1.3935929418     0.0000000000    -0.0000000000
C       0.6967964709     1.2068868901     0.0000000000
H       1.2375173766     2.1434429715     0.0000000000
C      -0.6967964709     1.2068868901     0.0000000000
H      -1.2375173766     2.1434429715     0.0000000000
C      -1.3935929418    -0.0000000000     0.0000000000
H      -2.4750347531    -0.0000000000     0.0000000000
C      -0.6967964709    -1.2068868901    -0.0000000000
H      -1.2375173766    -2.1434429715    -0.0000000000
C       0.6967964709    -1.2068868901    -0.0000000000
H       1.2375173766    -2.1434429715    -0.0000000000
$end

$rem
   JOB_TYPE  =  SP
   BASIS  =  general
   METHOD  =  EOM-CCSD
   CVS_EE_STATES = [10,10,10,10,0,0,0,0]
   EE_STATES = [0,0,0,0,0,0,3,0]
   eom_preconv_singles = true
   n_frozen_core = fc
   cc_trans_prop = 1
   use_libqints = 1   !use new int library (will be def in trunk)
   cc_memory = 100000
   EOM_DAVIDSON_MAX_ITER 200
   EOM_DAVIDSON_MAXVECTORS = 1000
   eom_davidson_convergence = 5
   !eom_shift = 10000
$end

$basis
H    0
6-311(2+,+)G**
****
C    0
S    1    1.000000
   4.56324000E+03    1.96665000E-03
S    1    1.000000
   6.82024000E+02    1.52306000E-02
S    1    1.000000
   1.54973000E+02    7.61269000E-02
S    1    1.000000
   4.44553000E+01    2.60801000E-01
S    1    1.000000
   1.30290000E+01    6.16462000E-01
S    1    1.000000
   1.82773000E+00    2.21006000E-01
SP   3    1.000000
   2.09642000E+01    1.14660000E-01   4.02487000E-02
   4.80331000E+00    9.19999000E-01   2.37594000E-01
   1.45933000E+00   -3.03068000E-03   8.15854000E-01
SP   1    1.000000
   4.83456000E-01    1.00000000E+00   1.00000000E+00
SP   1    1.000000
   1.45585000E-01    1.00000000E+00   1.00000000E+00
SP   1    1.000000
   4.38000000E-02    1.00000000E+00   1.00000000E+00
SP   1    1.000000
   1.31927711E-02    1.00000000E+00   1.00000000E+00
D    1    1.000000
   6.26000000E-01    1.00000000E+00
****
end

$trans_prop
state_list
ee_singlets 7 1
cvs_ee_singlets 1 1
cvs_ee_singlets 1 2
cvs_ee_singlets 1 3
cvs_ee_singlets 1 4
cvs_ee_singlets 1 5
cvs_ee_singlets 1 6
cvs_ee_singlets 1 7
cvs_ee_singlets 1 8
cvs_ee_singlets 1 9
cvs_ee_singlets 1 10
cvs_ee_singlets 2 1
cvs_ee_singlets 2 2
cvs_ee_singlets 2 3
cvs_ee_singlets 2 4
cvs_ee_singlets 2 5
cvs_ee_singlets 2 6
cvs_ee_singlets 2 7
cvs_ee_singlets 2 8
cvs_ee_singlets 2 9
cvs_ee_singlets 2 10
cvs_ee_singlets 3 1
cvs_ee_singlets 3 2
cvs_ee_singlets 3 3
cvs_ee_singlets 3 4
cvs_ee_singlets 3 5
cvs_ee_singlets 3 6
cvs_ee_singlets 3 7
cvs_ee_singlets 3 8
cvs_ee_singlets 3 9
cvs_ee_singlets 3 10
cvs_ee_singlets 4 1
cvs_ee_singlets 4 2
cvs_ee_singlets 4 3
cvs_ee_singlets 4 4
cvs_ee_singlets 4 5
cvs_ee_singlets 4 6
cvs_ee_singlets 4 7
cvs_ee_singlets 4 8
cvs_ee_singlets 4 9
cvs_ee_singlets 4 10
end_list
tate_pair_list
1 2
1 3
1 4
1 5
1 6
1 7
1 8
1 9
1 10
1 11
1 12
1 13
1 14
1 15
1 16
1 17
1 18
1 19
1 20
1 21
1 22
1 23
1 24
1 25
1 26
1 27
1 28
1 29
1 30
1 31
1 32
1 33
1 34
1 35
1 36
1 37
1 38
1 39
1 40
1 41
end_pairs
calc default
$end


--------------------------------------------------------------
 ----------------------------------------------------------------
             Standard Nuclear Orientation (Angstroms)
    I     Atom           X                Y                Z
 ----------------------------------------------------------------
    1      H       2.4750347531     0.0000000000    -0.0000000000
    2      C       1.3935929418     0.0000000000    -0.0000000000
    3      C       0.6967964709     1.2068868901     0.0000000000
    4      H       1.2375173766     2.1434429715     0.0000000000
    5      C      -0.6967964709     1.2068868901     0.0000000000
    6      H      -1.2375173766     2.1434429715     0.0000000000
    7      C      -1.3935929418    -0.0000000000     0.0000000000
    8      H      -2.4750347531    -0.0000000000     0.0000000000
    9      C      -0.6967964709    -1.2068868901    -0.0000000000
   10      H      -1.2375173766    -2.1434429715    -0.0000000000
   11      C       0.6967964709    -1.2068868901    -0.0000000000
   12      H       1.2375173766    -2.1434429715    -0.0000000000
 ----------------------------------------------------------------
 Molecular Point Group                 D2h   NOp =  8
 Largest Abelian Subgroup              D2h   NOp =  8
 Nuclear Repulsion Energy =   203.7187449024 hartrees
 There are       21 alpha and       21 beta electrons

 Q-Chem warning in module forms1/BasisType.C, line 1685:

 Setting pure/cartesian flag to 2111 for general basis


 Requested basis set is non-standard
 There are 102 shells and 228 basis functions
MEM_TOTAL is adjusted to CC_MEMORY + MEM_STATIC!
 Total memory of 100192MB is distributed as follows: 
   QALLOC including MEM_STATIC uses 192MB
   MEM_STATIC is set to 192MB
   CCMAN JOB total memory use is  100000MB
 Warning: actual memory use might exceed 100192MB

 Total QAlloc Memory Limit    192 MB
 Mega-Array Size       188 MB
 MEM_STATIC part       192 MB

                       Distance Matrix (Angstroms)
             H (  1)   C (  2)   C (  3)   H (  4)   C (  5)   H (  6)
   C (  2)  1.081442
   C (  3)  2.149118  1.393593
   H (  4)  2.475035  2.149118  1.081442
   C (  5)  3.393684  2.413774  1.393593  2.149118
   H (  6)  4.286886  3.393684  2.149118  2.475035  1.081442
   C (  7)  3.868628  2.787186  2.413774  3.393684  1.393593  2.149118
   H (  8)  4.950070  3.868628  3.393684  4.286886  2.149118  2.475035
   C (  9)  3.393684  2.413774  2.787186  3.868628  2.413774  3.393684
   H ( 10)  4.286886  3.393684  3.868628  4.950070  3.393684  4.286886
   C ( 11)  2.149118  1.393593  2.413774  3.393684  2.787186  3.868628
   H ( 12)  2.475035  2.149118  3.393684  4.286886  3.868628  4.950070
             C (  7)   H (  8)   C (  9)   H ( 10)   C ( 11)
   H (  8)  1.081442
   C (  9)  1.393593  2.149118
   H ( 10)  2.149118  2.475035  1.081442
   C ( 11)  2.413774  3.393684  1.393593  2.149118
   H ( 12)  3.393684  4.286886  2.149118  2.475035  1.081442
 
 A cutoff of  1.0D-14 yielded   4632 shell pairs
 There are     25539 function pairs (     26958 Cartesian)
 
 -------------------------------------------------------
 OpenMP Integral Computing Module                       
 Release: version 1.0, May 2013, Q-Chem Inc. Pittsburgh 
 -------------------------------------------------------
 Integral Job Info:
 Integral job number is                      11
 Integral operator is                         1
 short-range coefficients                     0
 long-range coefficients              100000000
 Omega coefficients                           0
 if combine SR and LR in K                    0
 Integral screening is                        0
 Integral computing path is                   2
 max size of driver memory is            800000
 size of driver memory is                593474
 size of scratch memory is              1367512
 max col of scratch BK array               1296
 max len of scratch array in speh3          155
 max len of scratch index in speh4           18
 max int batch size is                      520
 min int batch size is                       52
 fixed nKL is                                52
 max L of basis functions is                  2
 order of int derivative is                   0
 number of shells is                        102
 number of basis is                         234
 number of cartesian basis is               234
 number of contracted shell pairs          4632
 number of primitive shell pairs           6390
 maxK2 (contraction) of shell pair            9
 max number of K2 of shell pair               1
 max number of CS2 of shell pair           1374
 max number of PS2 of shell pair           1374
 mem total for path MDJ                  537338
 -------------------------------------------------------
 Smallest overlap matrix eigenvalue = 9.20E-09
 Linear dependence detected in AO basis
 Number of orthogonalized atomic orbitals = 221
 Maximum deviation from orthogonality = 3.392E-10

 Scale SEOQF with 1.000000e-01/1.000000e-01/1.000000e-01

 Standard Electronic Orientation quadrupole field applied
 Nucleus-field energy     =     0.0000000057 hartrees
 Guess MOs from core Hamiltonian diagonalization

 -----------------------------------------------------------------------
  General SCF calculation program by
  Eric Jon Sundstrom, Paul Horn, Yuezhi Mao, Dmitri Zuev, Alec White,
  David Stuck, Shaama M.S., Shane Yost, Joonho Lee, David Small,
  Daniel Levine, Susi Lehtola, Hugh Burton, Evgeny Epifanovsky
 -----------------------------------------------------------------------
 Hartree-Fock
 A restricted SCF calculation will be
 performed using DIIS
 SCF converges when DIIS error is below 1.0e-08
 ---------------------------------------
  Cycle       Energy         DIIS error
 ---------------------------------------
    1    -184.2228632418      8.63e-02  
    2    -168.0386170413      4.46e-02  
    3    -221.1238641312      3.49e-02  
    4    -229.2582984432      1.38e-02  
    5    -230.5163601120      5.61e-03  
    6    -230.7362611878      1.60e-03  
    7    -230.7555322715      3.98e-04  
    8    -230.7567897872      6.28e-05  
    9    -230.7568463987      7.54e-06  
   10    -230.7568473318      2.77e-06  
   11    -230.7568474115      4.07e-07  
   12    -230.7568474145      9.52e-08  
   13    -230.7568474146      1.97e-08  
   14    -230.7568474146      3.00e-09  Convergence criterion met
 ---------------------------------------
 SCF time:   CPU 171.18s  wall 17.00s 
 SCF   energy in the final basis set =     -230.7568474146


 ------------------------------------------------------------------------------

   CCMAN2: suite of methods based on coupled cluster
           and equation of motion theories.

   Components:
   * libvmm-1.3-trunk
     by Evgeny Epifanovsky, Ilya Kaliman.
   * libtensor-2.5-trunk
     by Evgeny Epifanovsky, Michael Wormit, Dmitry Zuev, Sam Manzer, 
        Ilya Kaliman.
   * libcc-2.5-trunk
     by Evgeny Epifanovsky, Arik Landau, Tomasz Kus, Kirill Khistyaev, 
        Dmitry Zuev, Prashant Manohar, Xintian Feng, Anna Krylov, 
        Matthew Goldey, Alec White, Thomas Jagau, Kaushik Nanda, 
        Anastasia Gunina, Alexander Kunitsa, Joonho Lee.

   CCMAN original authors:
   Anna I. Krylov, C. David Sherrill, Steven R. Gwaltney,
   Edward F. C. Byrd (2000)
   Sergey V. Levchenko, Lyudmila V. Slipchenko, Tao Wang,
   Ana-Maria C. Cristian (2003)
   Piotr A. Pieniazek, C. Melania Oana, Evgeny Epifanovsky (2007)
   Prashant Manohar (2009)

 ------------------------------------------------------------------------------


 Calculation will run on 10 cores with 100000MB of RAM.

 
 Alpha MOs, Restricted
 -- Occupied --                  
-11.239 -11.239 -11.239 -11.237 -11.237 -11.237  -1.153  -1.017
  1 Ag    1 B3u   1 B2u   2 Ag    1 B1g   2 B3u   3 Ag    3 B3u                
 -1.017  -0.826  -0.826  -0.712  -0.645  -0.621  -0.590  -0.590
  2 B2u   4 Ag    2 B1g   5 Ag    4 B3u   3 B2u   5 B3u   4 B2u                
 -0.502  -0.496  -0.496  -0.337  -0.337
  1 B1u   6 Ag    3 B1g   1 B2g   1 B3g                                        
 -- Virtual --                   
  0.017   0.022   0.022   0.033   0.033   0.034   0.044   0.044
  7 Ag    6 B3u   5 B2u   8 Ag    4 B1g   2 B1u   2 B2g   2 B3g                
  0.049   0.054   0.056   0.056   0.057   0.067   0.067   0.069
  7 B3u   6 B2u   3 B1u   1 Au    9 Ag    8 B3u   7 B2u   3 B2g                
  0.070   0.070   0.084   0.093   0.093   0.103   0.103   0.114
 10 Ag    5 B1g  11 Ag    9 B3u   8 B2u  12 Ag    6 B1g   4 B1u                
  0.114   0.131   0.172   0.186   0.186   0.186   0.195   0.204
  2 Au   10 B3u   5 B1u   4 B2g   3 B3g   9 B2u  13 Ag   14 Ag                 
  0.204   0.225   0.225   0.225   0.237   0.239   0.239   0.247
  7 B1g  11 B3u  10 B2u   5 B2g  15 Ag    6 B1u   3 Au   16 Ag                 
  0.247   0.250   0.250   0.255   0.255   0.281   0.289   0.289
  8 B1g  12 B3u  11 B2u  13 B3u  12 B2u  14 B3u  17 Ag    9 B1g                
  0.303   0.338   0.374   0.413   0.426   0.426   0.454   0.454
 10 B1g  18 Ag    6 B2g  15 B3u  16 B3u  13 B2u  19 Ag   11 B1g                
  0.515   0.515   0.522   0.522   0.621   0.623   0.719   0.739
 20 Ag   12 B1g  17 B3u  14 B2u  21 Ag   15 B2u  18 B3u  19 B3u                
  0.739   0.751   0.752   0.758   0.758   0.785   0.785   0.822
 16 B2u   7 B1u  13 B1g  22 Ag   14 B1g   7 B2g   4 B3g  23 Ag                 
  0.836   0.836   0.891   0.896   0.939   0.939   0.960   0.960
  8 B1u   4 Au   20 B3u   8 B2g  21 B3u  17 B2u  24 Ag   15 B1g                
  0.976   1.016   1.016   1.063   1.063   1.108   1.110   1.110
 25 Ag   22 B3u  18 B2u  26 Ag   16 B1g  23 B3u  24 B3u  19 B2u                
  1.131   1.170   1.204   1.204   1.250   1.324   1.324   1.392
 17 B1g   9 B1u  27 Ag   18 B1g   5 B3g   9 B2g   6 B3g  10 B1u                
  1.392   1.475   1.561   1.720   1.789   1.794   1.794   1.829
  5 Au   25 B3u  28 Ag   20 B2u  29 Ag   26 B3u  21 B2u  10 B2g                
  1.848   1.848   1.910   1.910   1.933   1.933   1.993   2.056
 11 B1u   6 Au   19 B1g  30 Ag   22 B2u  27 B3u  12 B1u  11 B2g                
  2.056   2.109   2.109   2.132   2.239   2.239   2.239   2.253
  7 B3g  31 Ag   20 B1g  23 B2u  21 B1g   8 B3g  12 B2g  28 B3u                
  2.253   2.301   2.350   2.350   2.381   2.381   2.642   2.664
 24 B2u  29 B3u  22 B1g  32 Ag   13 B1u   7 Au   13 B2g   8 Au                 
  2.749   2.749   2.768   2.831   2.831   2.941   2.941   2.977
 33 Ag   23 B1g  34 Ag   30 B3u  25 B2u  26 B2u  31 B3u  35 Ag                 
  2.980   3.031   3.031   3.035   3.044   3.044   3.082   3.208
 32 B3u  33 B3u  27 B2u  34 B3u  36 Ag   24 B1g  14 B1u  14 B2g                
  3.208   3.268   3.302   3.302   3.339   3.339   3.487   3.557
  9 B3g  25 B1g  15 B1u   9 Au   37 Ag   26 B1g  15 B2g  28 B2u                
  3.775   3.775   3.912   3.912   3.938   4.074   4.397   4.397
 27 B1g  38 Ag   35 B3u  29 B2u  39 Ag   36 B3u  40 Ag   28 B1g                
  4.485   4.533   4.533   5.134   5.279   5.461   5.461   5.789
 37 B3u  38 B3u  30 B2u  41 Ag   29 B1g  39 B3u  31 B2u  42 Ag                 
  5.789   6.211  20.654  20.721  20.721  20.862  20.862  21.155
 30 B1g  40 B3u  43 Ag   41 B3u  32 B2u  44 Ag   31 B1g  42 B3u                
 80.225  80.296  80.296  80.416  80.416  80.640 322.068 322.132
 45 Ag   43 B3u  33 B2u  46 Ag   32 B1g  44 B3u  47 Ag   45 B3u                
322.132 322.234 322.234 322.4161431.6381431.6941431.6941431.781
 34 B2u  48 Ag   33 B1g  46 B3u  49 Ag   47 B3u  35 B2u  50 Ag                 
*******1431.9338749.8788749.9238749.9238749.9948749.9948750.117
 34 B1g  48 B3u  51 Ag   49 B3u  36 B2u  52 Ag   35 B1g  50 B3u                
 
 Beta MOs, Restricted
 -- Occupied --                  
-11.239 -11.239 -11.239 -11.237 -11.237 -11.237  -1.153  -1.017
  1 Ag    1 B3u   1 B2u   2 Ag    1 B1g   2 B3u   3 Ag    3 B3u                
 -1.017  -0.826  -0.826  -0.712  -0.645  -0.621  -0.590  -0.590
  2 B2u   4 Ag    2 B1g   5 Ag    4 B3u   3 B2u   5 B3u   4 B2u                
 -0.502  -0.496  -0.496  -0.337  -0.337
  1 B1u   6 Ag    3 B1g   1 B2g   1 B3g                                        
 -- Virtual --                   
  0.017   0.022   0.022   0.033   0.033   0.034   0.044   0.044
  7 Ag    6 B3u   5 B2u   8 Ag    4 B1g   2 B1u   2 B2g   2 B3g                
  0.049   0.054   0.056   0.056   0.057   0.067   0.067   0.069
  7 B3u   6 B2u   3 B1u   1 Au    9 Ag    8 B3u   7 B2u   3 B2g                
  0.070   0.070   0.084   0.093   0.093   0.103   0.103   0.114
 10 Ag    5 B1g  11 Ag    9 B3u   8 B2u  12 Ag    6 B1g   4 B1u                
  0.114   0.131   0.172   0.186   0.186   0.186   0.195   0.204
  2 Au   10 B3u   5 B1u   4 B2g   3 B3g   9 B2u  13 Ag   14 Ag                 
  0.204   0.225   0.225   0.225   0.237   0.239   0.239   0.247
  7 B1g  11 B3u  10 B2u   5 B2g  15 Ag    6 B1u   3 Au   16 Ag                 
  0.247   0.250   0.250   0.255   0.255   0.281   0.289   0.289
  8 B1g  12 B3u  11 B2u  13 B3u  12 B2u  14 B3u  17 Ag    9 B1g                
  0.303   0.338   0.374   0.413   0.426   0.426   0.454   0.454
 10 B1g  18 Ag    6 B2g  15 B3u  16 B3u  13 B2u  19 Ag   11 B1g                
  0.515   0.515   0.522   0.522   0.621   0.623   0.719   0.739
 20 Ag   12 B1g  17 B3u  14 B2u  21 Ag   15 B2u  18 B3u  19 B3u                
  0.739   0.751   0.752   0.758   0.758   0.785   0.785   0.822
 16 B2u   7 B1u  13 B1g  22 Ag   14 B1g   7 B2g   4 B3g  23 Ag                 
  0.836   0.836   0.891   0.896   0.939   0.939   0.960   0.960
  8 B1u   4 Au   20 B3u   8 B2g  21 B3u  17 B2u  24 Ag   15 B1g                
  0.976   1.016   1.016   1.063   1.063   1.108   1.110   1.110
 25 Ag   22 B3u  18 B2u  26 Ag   16 B1g  23 B3u  24 B3u  19 B2u                
  1.131   1.170   1.204   1.204   1.250   1.324   1.324   1.392
 17 B1g   9 B1u  27 Ag   18 B1g   5 B3g   9 B2g   6 B3g  10 B1u                
  1.392   1.475   1.561   1.720   1.789   1.794   1.794   1.829
  5 Au   25 B3u  28 Ag   20 B2u  29 Ag   26 B3u  21 B2u  10 B2g                
  1.848   1.848   1.910   1.910   1.933   1.933   1.993   2.056
 11 B1u   6 Au   19 B1g  30 Ag   22 B2u  27 B3u  12 B1u  11 B2g                
  2.056   2.109   2.109   2.132   2.239   2.239   2.239   2.253
  7 B3g  31 Ag   20 B1g  23 B2u  21 B1g   8 B3g  12 B2g  28 B3u                
  2.253   2.301   2.350   2.350   2.381   2.381   2.642   2.664
 24 B2u  29 B3u  22 B1g  32 Ag   13 B1u   7 Au   13 B2g   8 Au                 
  2.749   2.749   2.768   2.831   2.831   2.941   2.941   2.977
 33 Ag   23 B1g  34 Ag   30 B3u  25 B2u  26 B2u  31 B3u  35 Ag                 
  2.980   3.031   3.031   3.035   3.044   3.044   3.082   3.208
 32 B3u  33 B3u  27 B2u  34 B3u  36 Ag   24 B1g  14 B1u  14 B2g                
  3.208   3.268   3.302   3.302   3.339   3.339   3.487   3.557
  9 B3g  25 B1g  15 B1u   9 Au   37 Ag   26 B1g  15 B2g  28 B2u                
  3.775   3.775   3.912   3.912   3.938   4.074   4.397   4.397
 27 B1g  38 Ag   35 B3u  29 B2u  39 Ag   36 B3u  40 Ag   28 B1g                
  4.485   4.533   4.533   5.134   5.279   5.461   5.461   5.789
 37 B3u  38 B3u  30 B2u  41 Ag   29 B1g  39 B3u  31 B2u  42 Ag                 
  5.789   6.211  20.654  20.721  20.721  20.862  20.862  21.155
 30 B1g  40 B3u  43 Ag   41 B3u  32 B2u  44 Ag   31 B1g  42 B3u                
 80.225  80.296  80.296  80.416  80.416  80.640 322.068 322.132
 45 Ag   43 B3u  33 B2u  46 Ag   32 B1g  44 B3u  47 Ag   45 B3u                
322.132 322.234 322.234 322.4161431.6381431.6941431.6941431.781
 34 B2u  48 Ag   33 B1g  46 B3u  49 Ag   47 B3u  35 B2u  50 Ag                 
*******1431.9338749.8788749.9238749.9238749.9948749.9948750.117
 34 B1g  48 B3u  51 Ag   49 B3u  36 B2u  52 Ag   35 B1g  50 B3u                

 Occupation and symmetry of molecular orbitals

 Point group: D2h (8 irreducible representations).

                           Ag   B1g  B2g  B3g  Au   B1u  B2u  B3u   All 
 ------------------------------------------------------------------------
 All molecular orbitals:
  - Alpha                  52   35   15   9    9    15   36   50    221 
  - Beta                   52   35   15   9    9    15   36   50    221 
 ------------------------------------------------------------------------
 Alpha orbitals:
  - Frozen occupied        2    1    0    0    0    0    1    2     6   
  - Active occupied        4    2    1    1    0    1    3    3     15  
  - Active virtual         46   32   14   8    9    14   32   45    200 
  - Frozen virtual         0    0    0    0    0    0    0    0     0   
 ------------------------------------------------------------------------
 Beta orbitals:
  - Frozen occupied        2    1    0    0    0    0    1    2     6   
  - Active occupied        4    2    1    1    0    1    3    3     15  
  - Active virtual         46   32   14   8    9    14   32   45    200 
  - Frozen virtual         0    0    0    0    0    0    0    0     0   
 ------------------------------------------------------------------------

 Import integrals:   CPU 0.00 s  wall 0.00 s

 Import integrals:   CPU 1108.93 s  wall 138.76 s

 MP2 amplitudes:   CPU 13.13 s  wall 11.05 s

           CCSD T amplitudes will be solved using DIIS.

           Start     Size      MaxIter   EConv     TConv     
           3         7         100       1.00e-06  1.00e-04  
 ------------------------------------------------------------------------------
           Energy (a.u.)   Ediff      Tdiff       Comment
 ------------------------------------------------------------------------------
          -231.59168049                           
     1    -231.59429820   2.62e-03   9.14e-01     
     2    -231.62000322   2.57e-02   1.24e-01     
     3    -231.62080522   8.02e-04   4.27e-02     
     4    -231.62331988   2.51e-03   1.33e-02     Switched to DIIS steps.
     5    -231.62422061   9.01e-04   1.12e-02     
     6    -231.62422923   8.61e-06   2.17e-03     
     7    -231.62422004   9.19e-06   6.74e-04     
     8    -231.62421970   3.45e-07   1.55e-04     
     9    -231.62421954   1.57e-07   3.98e-05     
 ------------------------------------------------------------------------------
          -231.62421954                           CCSD T converged.

 SCF energy                 = -230.75684741
 MP2 energy                 = -231.59168049
 CCSD correlation energy     =   -0.86737213
 CCSD total energy           = -231.62421954

 CCSD  T1^2 = 0.0065  T2^2 = 0.3405  Leading amplitudes:

 Amplitude    Orbitals with energies
  0.0217       1 (B3g) A                 ->    4 (B3g) A                  
              -0.3371                          0.7850                     
  0.0217       1 (B3g) B                 ->    4 (B3g) B                  
              -0.3371                          0.7850                     
  0.0217       1 (B2g) A                 ->    7 (B2g) A                  
              -0.3371                          0.7850                     
  0.0217       1 (B2g) B                 ->    7 (B2g) B                  
              -0.3371                          0.7850                     

 Amplitude    Orbitals with energies
 -0.0672       1 (B2g) A     1 (B2g) B   ->    4 (B1u) A     4 (B1u) B    
              -0.3371       -0.3371            0.1142        0.1142       
  0.0672       1 (B2g) A     1 (B2g) B   ->    4 (B1u) B     4 (B1u) A    
              -0.3371       -0.3371            0.1142        0.1142       
  0.0672       1 (B2g) B     1 (B2g) A   ->    4 (B1u) A     4 (B1u) B    
              -0.3371       -0.3371            0.1142        0.1142       
 -0.0672       1 (B2g) B     1 (B2g) A   ->    4 (B1u) B     4 (B1u) A    
              -0.3371       -0.3371            0.1142        0.1142       
 -0.0672       1 (B3g) A     1 (B3g) B   ->    2 (Au) A      2 (Au) B     
              -0.3371       -0.3371            0.1142        0.1142       
  0.0672       1 (B3g) A     1 (B3g) B   ->    2 (Au) B      2 (Au) A     
              -0.3371       -0.3371            0.1142        0.1142       
  0.0672       1 (B3g) B     1 (B3g) A   ->    2 (Au) A      2 (Au) B     
              -0.3371       -0.3371            0.1142        0.1142       
 -0.0672       1 (B3g) B     1 (B3g) A   ->    2 (Au) B      2 (Au) A     
              -0.3371       -0.3371            0.1142        0.1142       

 Computing CCSD intermediates for later calculations
 Finished.

           CCSD Lambda amplitudes will be solved using DIIS.
           Start     Size      MaxIter   EConv     LConv     
           3         7         100       1.00e-06  1.00e-04  
 ------------------------------------------------------------------------------
            Enorm      Ldiff       Comment
 ------------------------------------------------------------------------------
     1     5.34e-02   4.37e-02     
     2     8.85e-03   5.93e-04     
     3     3.02e-03   1.80e-03     
     4     1.12e-03   2.47e-04     Switched to DIIS steps.
     5     3.20e-04   3.08e-04     
     6     1.00e-04   6.30e-05     
     7     3.17e-05   1.73e-05     
     8     8.54e-06   4.74e-06     
     9     2.67e-06   8.93e-07     
    10     9.05e-07   2.19e-07     
 ------------------------------------------------------------------------------
                                   CCSD Lambda converged.

 CCSD calculation:   CPU 963.24 s  wall 171.25 s

        Solving for EOMEE-CCSD B2u singlet states.

       EOMEE-CCSD-SINGLES right amplitudes will be solved using Davidson.
        Amplitudes will be solved using standard  algorithm.
     Hard-coded thresholds: 
     LinDepThresh=1.00e-15  NormThresh=1.00e-06  ReorthogonThresh=1.00e-02

      Roots     MaxVec    MaxIter   Precond   Conv      Shift    
      3         1000      200       1         1.00e-05  0.00e+00  
 ------------------------------------------------------------------------------
      Iter ConvRoots NVecs ResNorm Current eigenvalues (eV)
 ------------------------------------------------------------------------------
      0    0      3     5.52e-04   9.5935   10.6606   10.6836   
      1    0      6     8.24e-03   9.4928   10.5976   10.6469   
      2    0      9     7.63e-03   9.3937   9.7240   10.5312   
      3    0      12    7.96e-03   9.3135   9.3892   10.4525   
      4    0      15    2.24e-03   9.3005   9.3891   10.4348   
      5    1      18    2.00e-04   9.3005   9.3891*  10.4337   
      6    2      20    7.34e-06   9.3005*  9.3891*  10.4337   
      7    3      21    1.27e-06   9.3005*  9.3891*  10.4337*  

     Davidson procedure converged

 EOMEE transition 1/B2u
 Total energy = -231.28243284 a.u.  Excitation energy = 9.3005 eV.
 R1^2 = 1.0000  Res^2 = 1.96e-06
 Conv-d = yes

 Amplitude    Transitions between orbitals
  0.4725       1 (B3g) A                 ->    4 (B1u) A                  
  0.4725       1 (B3g) B                 ->    4 (B1u) B                  
 -0.4725       1 (B2g) A                 ->    2 (Au) A                   
 -0.4725       1 (B2g) B                 ->    2 (Au) B                   
  0.1381       1 (B3g) A                 ->    3 (B1u) A                  
  0.1381       1 (B3g) B                 ->    3 (B1u) B                  
 -0.1381       1 (B2g) A                 ->    1 (Au) A                   
 -0.1381       1 (B2g) B                 ->    1 (Au) B                   

              Summary of significant orbitals:

               Number  Type             Irrep      Energy
               20      Occ  Alpha       1 (B2g)     -0.3371
               21      Occ  Alpha       1 (B3g)     -0.3371
               20      Occ  Beta        1 (B2g)     -0.3371
               21      Occ  Beta        1 (B3g)     -0.3371
               33      Vir  Alpha       1 (Au)      0.0555
               46      Vir  Alpha       2 (Au)      0.1142
               32      Vir  Alpha       3 (B1u)      0.0555
               45      Vir  Alpha       4 (B1u)      0.1142
               33      Vir  Beta        1 (Au)      0.0555
               46      Vir  Beta        2 (Au)      0.1142
               32      Vir  Beta        3 (B1u)      0.0555
               45      Vir  Beta        4 (B1u)      0.1142


 EOMEE transition 2/B2u
 Total energy = -231.27917592 a.u.  Excitation energy = 9.3891 eV.
 R1^2 = 1.0000  Res^2 = 1.42e-06
 Conv-d = yes

 Amplitude    Transitions between orbitals
  0.6749       1 (B3g) A                 ->    2 (B1u) A                  
  0.6749       1 (B3g) B                 ->    2 (B1u) B                  
 -0.1902       1 (B3g) A                 ->    5 (B1u) A                  
 -0.1902       1 (B3g) B                 ->    5 (B1u) B                  

              Summary of significant orbitals:

               Number  Type             Irrep      Energy
               21      Occ  Alpha       1 (B3g)     -0.3371
               21      Occ  Beta        1 (B3g)     -0.3371
               27      Vir  Alpha       2 (B1u)      0.0344
               48      Vir  Alpha       5 (B1u)      0.1722
               27      Vir  Beta        2 (B1u)      0.0344
               48      Vir  Beta        5 (B1u)      0.1722


 EOMEE transition 3/B2u
 Total energy = -231.24078811 a.u.  Excitation energy = 10.4337 eV.
 R1^2 = 1.0000  Res^2 = 4.25e-07
 Conv-d = yes

 Amplitude    Transitions between orbitals
  0.3995       1 (B3g) A                 ->    3 (B1u) A                  
  0.3995       1 (B3g) B                 ->    3 (B1u) B                  
  0.3995       1 (B2g) A                 ->    1 (Au) A                   
  0.3995       1 (B2g) B                 ->    1 (Au) B                   
  0.2836       1 (B2g) A                 ->    2 (Au) A                   
  0.2836       1 (B2g) B                 ->    2 (Au) B                   
  0.2836       1 (B3g) A                 ->    4 (B1u) A                  
  0.2836       1 (B3g) B                 ->    4 (B1u) B                  

              Summary of significant orbitals:

               Number  Type             Irrep      Energy
               20      Occ  Alpha       1 (B2g)     -0.3371
               21      Occ  Alpha       1 (B3g)     -0.3371
               20      Occ  Beta        1 (B2g)     -0.3371
               21      Occ  Beta        1 (B3g)     -0.3371
               33      Vir  Alpha       1 (Au)      0.0555
               46      Vir  Alpha       2 (Au)      0.1142
               32      Vir  Alpha       3 (B1u)      0.0555
               45      Vir  Alpha       4 (B1u)      0.1142
               33      Vir  Beta        1 (Au)      0.0555
               46      Vir  Beta        2 (Au)      0.1142
               32      Vir  Beta        3 (B1u)      0.0555
               45      Vir  Beta        4 (B1u)      0.1142


        EOMEE-CCSD/MP2 right amplitudes will be solved using Davidson.
        Amplitudes will be solved using standard  algorithm.
     Hard-coded thresholds: 
     LinDepThresh=1.00e-15  NormThresh=1.00e-06  ReorthogonThresh=1.00e-02

      Roots     MaxVec    MaxIter   Precond   Conv      Shift    
      3         1000      200       1         1.00e-05  0.00e+00  
 ------------------------------------------------------------------------------
      Iter ConvRoots NVecs ResNorm Current eigenvalues (eV)
 ------------------------------------------------------------------------------
      0    0      3     1.53e-01   9.3005   9.3891   10.4337   
      1    0      6     1.56e+01   6.8735   7.7992   8.7496   
      2    0      9     8.34e-01   5.4119   7.2391   7.9164   
      3    0      12    5.66e-02   5.2275   7.1852   7.7738   
      4    0      15    1.41e-01   5.2130   7.1693   7.6702   
      5    0      18    2.51e-02   5.2094   7.1610   7.6006   
      6    0      21    3.31e-03   5.2091   7.1586   7.5775   
      7    0      24    8.62e-04   5.2094   7.1585   7.5773   
      8    0      27    4.85e-05   5.2093   7.1585   7.5772   
      9    2      30    8.08e-06   5.2093*  7.1585*  7.5770   
      10   3      31    4.34e-06   5.2093*  7.1584*  7.5769*  

     Davidson procedure converged

 EOMEE transition 1/B2u
 Total energy = -231.43278021 a.u.  Excitation energy = 5.2093 eV.
 R0^2 = 0.0000  R1^2 = 0.8975  R2^2 = 0.1025  Res^2 = 7.05e-07
 Conv-d = yes

 Amplitude    Transitions between orbitals
  0.4423       1 (B2g) A                 ->    2 (Au) A                   
  0.4423       1 (B2g) B                 ->    2 (Au) B                   
 -0.4423       1 (B3g) A                 ->    4 (B1u) A                  
 -0.4423       1 (B3g) B                 ->    4 (B1u) B                  
 -0.1465       1 (B3g) A                 ->    6 (B1u) A                  
 -0.1465       1 (B3g) B                 ->    6 (B1u) B                  
 -0.1465       1 (B2g) A                 ->    3 (Au) A                   
 -0.1465       1 (B2g) B                 ->    3 (Au) B                   

              Summary of significant orbitals:

               Number  Type             Irrep      Energy
               20      Occ  Alpha       1 (B2g)     -0.3371
               21      Occ  Alpha       1 (B3g)     -0.3371
               20      Occ  Beta        1 (B2g)     -0.3371
               21      Occ  Beta        1 (B3g)     -0.3371
               46      Vir  Alpha       2 (Au)      0.1142
               60      Vir  Alpha       3 (Au)      0.2392
               45      Vir  Alpha       4 (B1u)      0.1142
               59      Vir  Alpha       6 (B1u)      0.2392
               46      Vir  Beta        2 (Au)      0.1142
               60      Vir  Beta        3 (Au)      0.2392
               45      Vir  Beta        4 (B1u)      0.1142
               59      Vir  Beta        6 (B1u)      0.2392


 EOMEE transition 2/B2u
 Total energy = -231.36115160 a.u.  Excitation energy = 7.1584 eV.
 R0^2 = 0.0000  R1^2 = 0.9367  R2^2 = 0.0633  Res^2 = 2.95e-06
 Conv-d = yes

 Amplitude    Transitions between orbitals
  0.5892       1 (B3g) A                 ->    2 (B1u) A                  
  0.5892       1 (B3g) B                 ->    2 (B1u) B                  
 -0.2187       1 (B3g) A                 ->    5 (B1u) A                  
 -0.2187       1 (B3g) B                 ->    5 (B1u) B                  
 -0.1748       1 (B3g) A                 ->    4 (B1u) A                  
 -0.1748       1 (B3g) B                 ->    4 (B1u) B                  
 -0.1748       1 (B2g) A                 ->    2 (Au) A                   
 -0.1748       1 (B2g) B                 ->    2 (Au) B                   

              Summary of significant orbitals:

               Number  Type             Irrep      Energy
               20      Occ  Alpha       1 (B2g)     -0.3371
               21      Occ  Alpha       1 (B3g)     -0.3371
               20      Occ  Beta        1 (B2g)     -0.3371
               21      Occ  Beta        1 (B3g)     -0.3371
               46      Vir  Alpha       2 (Au)      0.1142
               27      Vir  Alpha       2 (B1u)      0.0344
               45      Vir  Alpha       4 (B1u)      0.1142
               48      Vir  Alpha       5 (B1u)      0.1722
               46      Vir  Beta        2 (Au)      0.1142
               27      Vir  Beta        2 (B1u)      0.0344
               45      Vir  Beta        4 (B1u)      0.1142
               48      Vir  Beta        5 (B1u)      0.1722


 EOMEE transition 3/B2u
 Total energy = -231.34577197 a.u.  Excitation energy = 7.5769 eV.
 R0^2 = 0.0000  R1^2 = 0.9331  R2^2 = 0.0669  Res^2 = 9.36e-06
 Conv-d = yes

 Amplitude    Transitions between orbitals
 -0.4028       1 (B3g) A                 ->    4 (B1u) A                  
 -0.4028       1 (B3g) B                 ->    4 (B1u) B                  
 -0.4028       1 (B2g) A                 ->    2 (Au) A                   
 -0.4028       1 (B2g) B                 ->    2 (Au) B                   
 -0.2681       1 (B3g) A                 ->    2 (B1u) A                  
 -0.2681       1 (B3g) B                 ->    2 (B1u) B                  
 -0.1442       1 (B2g) A                 ->    1 (Au) A                   
 -0.1442       1 (B2g) B                 ->    1 (Au) B                   
 -0.1442       1 (B3g) A                 ->    3 (B1u) A                  
 -0.1442       1 (B3g) B                 ->    3 (B1u) B                  

              Summary of significant orbitals:

               Number  Type             Irrep      Energy
               20      Occ  Alpha       1 (B2g)     -0.3371
               21      Occ  Alpha       1 (B3g)     -0.3371
               20      Occ  Beta        1 (B2g)     -0.3371
               21      Occ  Beta        1 (B3g)     -0.3371
               33      Vir  Alpha       1 (Au)      0.0555
               46      Vir  Alpha       2 (Au)      0.1142
               27      Vir  Alpha       2 (B1u)      0.0344
               32      Vir  Alpha       3 (B1u)      0.0555
               45      Vir  Alpha       4 (B1u)      0.1142
               33      Vir  Beta        1 (Au)      0.0555
               46      Vir  Beta        2 (Au)      0.1142
               27      Vir  Beta        2 (B1u)      0.0344
               32      Vir  Beta        3 (B1u)      0.0555
               45      Vir  Beta        4 (B1u)      0.1142


      EOM-CCSD/MP2 left amplitudes will be solved using Davidson.
        Amplitudes will be solved using MOM  algorithm.
     Hard-coded thresholds: 
     LinDepThresh=1.00e-15  NormThresh=1.00e-06  ReorthogonThresh=1.00e-02

      Roots     MaxVec    MaxIter   Precond   Conv      Shift    
      3         1000      200       1         1.00e-05  0.00e+00  
 ------------------------------------------------------------------------------
      Iter ConvRoots NVecs ResNorm Current eigenvalues (eV)
 ------------------------------------------------------------------------------
      0    0      3     5.21e-03   5.2093   7.1584   7.5769   
      1    0      6     4.13e+00   5.2093   7.1584   7.5769   
      2    0      9     2.34e-02   5.2093   7.1584   7.5769   
      3    0      12    4.26e-04   5.2093   7.1584   7.5769   
      4    0      15    4.71e-05   5.2093   7.1584   7.5769   
      5    2      18    1.04e-05   5.2093*  7.1584*  7.5769   
      6    3      19    8.44e-07   5.2093*  7.1584*  7.5769*  

     Davidson procedure converged

 EOMEE-CCSD calculation:   CPU 1998.34 s  wall 335.49 s

        Solving for CVS-EOMEE-CCSD Ag singlet states.

       EOMEE-CCSD-SINGLES right amplitudes will be solved using Davidson.
        Amplitudes will be solved using standard  algorithm.
     Hard-coded thresholds: 
     LinDepThresh=1.00e-15  NormThresh=1.00e-06  ReorthogonThresh=1.00e-02

      Roots     MaxVec    MaxIter   Precond   Conv      Shift    
      10        1000      200       1         1.00e-05  0.00e+00  
 ------------------------------------------------------------------------------
      Iter ConvRoots NVecs ResNorm Current eigenvalues (eV)
 ------------------------------------------------------------------------------
      0    0      10    7.04e-04   303.1647   303.2052   303.7622   303.8999   303.9193   304.2818   304.2897   304.3693   304.8275   304.8752   
      1    0      20    7.19e-01   302.7346   302.7733   303.4644   303.7194   303.7389   304.1612   304.2040   304.2246   304.7517   304.7986   
      2    0      30    9.64e-02   300.8562   300.9140   303.2851   303.3976   303.4311   303.8508   303.8821   304.0415   304.0654   304.0877   
      3    0      40    2.90e-01   300.4056   300.4706   303.1385   303.1874   303.2638   303.7259   303.7543   303.9178   303.9245   304.0134   
      4    0      50    8.60e-02   300.3798   300.4454   303.0306   303.0814   303.2593   303.7159   303.7466   303.7656   303.7820   304.0041   
      5    0      60    7.82e-03   300.3769   300.4424   303.0008   303.0507   303.2590   303.7142   303.7314   303.7435   303.7494   304.0034   
      6    0      70    2.92e-04   300.3768   300.4423   302.9987   303.0485   303.2589   303.7140   303.7291   303.7421   303.7483   304.0032   
      7    9      80    4.67e-06   300.3767*  300.4423*  302.9986*  303.0484*  303.2588*  303.7140*  303.7290*  303.7420*  303.7483*  304.0031   
      8    10     81    2.52e-06   300.3767*  300.4423*  302.9986*  303.0484*  303.2588*  303.7140*  303.7290*  303.7420*  303.7483*  304.0031*  

     Davidson procedure converged

        CVS-EOMEE-CCSD/MP2 right amplitudes will be solved using Davidson.
        Amplitudes will be solved using standard  algorithm.
     Hard-coded thresholds: 
     LinDepThresh=1.00e-15  NormThresh=1.00e-06  ReorthogonThresh=1.00e-02

      Roots     MaxVec    MaxIter   Precond   Conv      Shift    
      10        1000      200       1         1.00e-05  0.00e+00  
 ------------------------------------------------------------------------------
      Iter ConvRoots NVecs ResNorm Current eigenvalues (eV)
 ------------------------------------------------------------------------------
      0    0      10    1.91e+00   300.3767   300.4423   302.9986   303.0484   303.2588   303.7140   303.7290   303.7420   303.7483   304.0031   
      1    0      20    1.11e+01   298.0826   298.1475   300.2471   300.2998   300.4499   300.9319   300.9517   301.0165   301.0566   301.1919   
      2    0      30    1.25e-01   288.4418   288.4953   289.3214   289.4404   289.4677   290.0083   290.0514   290.0691   290.7647   290.7950   
      3    0      40    2.60e-02   287.9092   287.9609   288.8233   288.9101   288.9370   289.4754   289.5162   289.5315   290.0516   290.0828   
      4    0      50    6.71e-03   287.8263   287.8774   288.7965   288.8660   288.8931   289.4192   289.4592   289.4928   289.8713   289.9026   
      5    0      60    3.34e-03   287.7911   287.8420   288.7863   288.8472   288.8740   289.3839   289.4241   289.4750   289.7783   289.8086   
      6    0      70    2.35e-03   287.7764   287.8271   288.7801   288.8349   288.8611   289.3575   289.3986   289.4616   289.7185   289.7464   
      7    0      80    1.61e-03   287.7684   287.8189   288.7748   288.8239   288.8486   289.3362   289.3792   289.4509   289.6687   289.6901   
      8    0      90    5.81e-04   287.7663   287.8167   288.7715   288.8170   288.8399   289.3270   289.3724   289.4455   289.6233   289.6297   
Found complex roots...
      9    0      100   7.25e-04   287.7660   287.8164   288.7702   288.8140   288.8363   289.3222   289.3688   289.4417   289.5922   289.5985   
      10   0      110   5.90e-04   287.7654   287.8158   288.7696   288.8122   288.8339   289.3188   289.3662   289.4367   289.5433   289.5654   
      11   2      120   7.65e-04   287.7652*  287.8157*  288.7692   288.8114   288.8328   289.3163   289.3649   289.4309   289.4886   289.5240   
      12   3      128   3.52e-04   287.7652*  287.8157*  288.7689*  288.8106   288.8319   289.3140   289.3632   289.4244   289.4544   289.4949   
Found complex roots...
      13   3      135   1.86e-04   287.7652*  287.8156*  288.7688*  288.8104   288.8315   289.3129   289.3627   289.4190   289.4352   289.4815   
      14   5      142   1.50e-04   287.7652*  287.8156*  288.7688*  288.8103*  288.8314*  289.3124   289.3623   289.4161   289.4282   289.4758   
      15   5      147   5.86e-05   287.7652*  287.8156*  288.7688*  288.8102*  288.8313*  289.3118   289.3620   289.4125   289.4199   289.4709   
      16   6      152   3.90e-05   287.7652*  287.8156*  288.7687*  288.8102*  288.8313*  289.3118   289.3619*  289.4120   289.4189   289.4698   
      17   7      156   1.17e-05   287.7651*  287.8156*  288.7688*  288.8102*  288.8313*  289.3116*  289.3618*  289.4116   289.4178   289.4694   
Found complex roots...
      18   7      159   7.85e-06   287.7651*  287.8156*  288.7688*  288.8102*  288.8313*  289.3116*  289.3619*  289.4114   289.4175   289.4690   
      19   9      162   5.37e-06   287.7651*  287.8156*  288.7688*  288.8102*  288.8313*  289.3116*  289.3619*  289.4110*  289.4170   289.4688*  
      20   10     163   4.84e-06   287.7651*  287.8156*  288.7688*  288.8102*  288.8313*  289.3116*  289.3619*  289.4110*  289.4169*  289.4688*  

     Davidson procedure converged

 EOMEE transition 1/Ag
 Total energy = -221.04904468 a.u.  Excitation energy = 287.7651 eV.
 R0^2 = 0.0000  R1^2 = 0.8118  R2_CCVV^2 = 0.0017  R2_COVV^2 = 0.0933  Res^2 = 5.96e-06
 Conv-d = yes

 Amplitude    Transitions between orbitals
 -0.3585       2 (Ag) A                  ->    7 (Ag) A                   
 -0.3585       2 (Ag) B                  ->    7 (Ag) B                   
 -0.2765       2 (Ag) A                  ->    11 (Ag) A                  
 -0.2765       2 (Ag) B                  ->    11 (Ag) B                  
  0.1654       2 (B3u) A                 ->    6 (B3u) A                  
  0.1654       2 (B3u) B                 ->    6 (B3u) B                  
 -0.1424       2 (B3u) A                 ->    9 (B3u) A                  
 -0.1424       2 (B3u) B                 ->    9 (B3u) B                  
 -0.1365       2 (Ag) A                  ->    9 (Ag) A                   
 -0.1365       2 (Ag) B                  ->    9 (Ag) B                   
 -0.1255       2 (Ag) A                  ->    15 (Ag) A                  
 -0.1255       2 (Ag) B                  ->    15 (Ag) B                  
  0.1092       1 (B3u) A                 ->    6 (B3u) A                  
  0.1092       1 (B3u) B                 ->    6 (B3u) B                  
  0.1092       1 (B2u) A                 ->    5 (B2u) A                  
  0.1092       1 (B2u) B                 ->    5 (B2u) B                  
  0.1085       2 (B3u) A                 ->    8 (B3u) A                  
  0.1085       2 (B3u) B                 ->    8 (B3u) B                  

              Summary of significant orbitals:

               Number  Type             Irrep      Energy
               4       Occ  Alpha       2 (Ag)    -11.2375
               3       Occ  Alpha       1 (B2u)    -11.2387
               2       Occ  Alpha       1 (B3u)    -11.2387
               6       Occ  Alpha       2 (B3u)    -11.2369
               4       Occ  Beta        2 (Ag)    -11.2375
               3       Occ  Beta        1 (B2u)    -11.2387
               2       Occ  Beta        1 (B3u)    -11.2387
               6       Occ  Beta        2 (B3u)    -11.2369
               22      Vir  Alpha       7 (Ag)      0.0169
               34      Vir  Alpha       9 (Ag)      0.0572
               40      Vir  Alpha      11 (Ag)      0.0843
               58      Vir  Alpha      15 (Ag)      0.2373
               24      Vir  Alpha       5 (B2u)      0.0216
               23      Vir  Alpha       6 (B3u)      0.0216
               35      Vir  Alpha       8 (B3u)      0.0667
               41      Vir  Alpha       9 (B3u)      0.0928
               22      Vir  Beta        7 (Ag)      0.0169
               34      Vir  Beta        9 (Ag)      0.0572
               40      Vir  Beta       11 (Ag)      0.0843
               58      Vir  Beta       15 (Ag)      0.2373
               24      Vir  Beta        5 (B2u)      0.0216
               23      Vir  Beta        6 (B3u)      0.0216
               35      Vir  Beta        8 (B3u)      0.0667
               41      Vir  Beta        9 (B3u)      0.0928


 EOMEE transition 2/Ag
 Total energy = -221.04719132 a.u.  Excitation energy = 287.8156 eV.
 R0^2 = 0.0000  R1^2 = 0.8117  R2_CCVV^2 = 0.0017  R2_COVV^2 = 0.0933  Res^2 = 5.94e-06
 Conv-d = yes

 Amplitude    Transitions between orbitals
  0.3547       1 (Ag) A                  ->    7 (Ag) A                   
  0.3547       1 (Ag) B                  ->    7 (Ag) B                   
  0.2739       1 (Ag) A                  ->    11 (Ag) A                  
  0.2739       1 (Ag) B                  ->    11 (Ag) B                  
 -0.1626       1 (B2u) A                 ->    5 (B2u) A                  
 -0.1626       1 (B2u) B                 ->    5 (B2u) B                  
  0.1626       1 (B3u) A                 ->    6 (B3u) A                  
  0.1626       1 (B3u) B                 ->    6 (B3u) B                  
  0.1405       1 (B2u) A                 ->    8 (B2u) A                  
  0.1405       1 (B2u) B                 ->    8 (B2u) B                  
 -0.1405       1 (B3u) A                 ->    9 (B3u) A                  
 -0.1405       1 (B3u) B                 ->    9 (B3u) B                  
  0.1348       1 (Ag) A                  ->    9 (Ag) A                   
  0.1348       1 (Ag) B                  ->    9 (Ag) B                   
  0.1242       1 (Ag) A                  ->    15 (Ag) A                  
  0.1242       1 (Ag) B                  ->    15 (Ag) B                  
 -0.1068       1 (B2u) A                 ->    7 (B2u) A                  
 -0.1068       1 (B2u) B                 ->    7 (B2u) B                  
  0.1068       1 (B3u) A                 ->    8 (B3u) A                  
  0.1068       1 (B3u) B                 ->    8 (B3u) B                  

              Summary of significant orbitals:

               Number  Type             Irrep      Energy
               1       Occ  Alpha       1 (Ag)    -11.2393
               3       Occ  Alpha       1 (B2u)    -11.2387
               2       Occ  Alpha       1 (B3u)    -11.2387
               1       Occ  Beta        1 (Ag)    -11.2393
               3       Occ  Beta        1 (B2u)    -11.2387
               2       Occ  Beta        1 (B3u)    -11.2387
               22      Vir  Alpha       7 (Ag)      0.0169
               34      Vir  Alpha       9 (Ag)      0.0572
               40      Vir  Alpha      11 (Ag)      0.0843
               58      Vir  Alpha      15 (Ag)      0.2373
               24      Vir  Alpha       5 (B2u)      0.0216
               36      Vir  Alpha       7 (B2u)      0.0667
               42      Vir  Alpha       8 (B2u)      0.0928
               23      Vir  Alpha       6 (B3u)      0.0216
               35      Vir  Alpha       8 (B3u)      0.0667
               41      Vir  Alpha       9 (B3u)      0.0928
               22      Vir  Beta        7 (Ag)      0.0169
               34      Vir  Beta        9 (Ag)      0.0572
               40      Vir  Beta       11 (Ag)      0.0843
               58      Vir  Beta       15 (Ag)      0.2373
               24      Vir  Beta        5 (B2u)      0.0216
               36      Vir  Beta        7 (B2u)      0.0667
               42      Vir  Beta        8 (B2u)      0.0928
               23      Vir  Beta        6 (B3u)      0.0216
               35      Vir  Beta        8 (B3u)      0.0667
               41      Vir  Beta        9 (B3u)      0.0928


 EOMEE transition 3/Ag
 Total energy = -221.01216301 a.u.  Excitation energy = 288.7687 eV.
 R0^2 = 0.0000  R1^2 = 0.8001  R2_CCVV^2 = 0.0016  R2_COVV^2 = 0.0991  Res^2 = 4.63e-06
 Conv-d = yes

 Amplitude    Transitions between orbitals
  0.3975       2 (B3u) A                 ->    6 (B3u) A                  
  0.3975       2 (B3u) B                 ->    6 (B3u) B                  
 -0.2006       2 (B3u) A                 ->    9 (B3u) A                  
 -0.2006       2 (B3u) B                 ->    9 (B3u) B                  
  0.1959       2 (Ag) A                  ->    7 (Ag) A                   
  0.1959       2 (Ag) B                  ->    7 (Ag) B                   
  0.1805       2 (Ag) A                  ->    9 (Ag) A                   
  0.1805       2 (Ag) B                  ->    9 (Ag) B                   
  0.1686       2 (B3u) A                 ->    8 (B3u) A                  
  0.1686       2 (B3u) B                 ->    8 (B3u) B                  
  0.1203       2 (Ag) A                  ->    8 (Ag) A                   
  0.1203       2 (Ag) B                  ->    8 (Ag) B                   
 -0.1203       1 (B1g) A                 ->    4 (B1g) A                  
 -0.1203       1 (B1g) B                 ->    4 (B1g) B                  

              Summary of significant orbitals:

               Number  Type             Irrep      Energy
               4       Occ  Alpha       2 (Ag)    -11.2375
               5       Occ  Alpha       1 (B1g)    -11.2375
               6       Occ  Alpha       2 (B3u)    -11.2369
               4       Occ  Beta        2 (Ag)    -11.2375
               5       Occ  Beta        1 (B1g)    -11.2375
               6       Occ  Beta        2 (B3u)    -11.2369
               22      Vir  Alpha       7 (Ag)      0.0169
               25      Vir  Alpha       8 (Ag)      0.0335
               34      Vir  Alpha       9 (Ag)      0.0572
               26      Vir  Alpha       4 (B1g)      0.0335
               23      Vir  Alpha       6 (B3u)      0.0216
               35      Vir  Alpha       8 (B3u)      0.0667
               41      Vir  Alpha       9 (B3u)      0.0928
               22      Vir  Beta        7 (Ag)      0.0169
               25      Vir  Beta        8 (Ag)      0.0335
               34      Vir  Beta        9 (Ag)      0.0572
               26      Vir  Beta        4 (B1g)      0.0335
               23      Vir  Beta        6 (B3u)      0.0216
               35      Vir  Beta        8 (B3u)      0.0667
               41      Vir  Beta        9 (B3u)      0.0928


 EOMEE transition 4/Ag
 Total energy = -221.01063884 a.u.  Excitation energy = 288.8102 eV.
 R0^2 = 0.0000  R1^2 = 0.8004  R2_CCVV^2 = 0.0016  R2_COVV^2 = 0.0990  Res^2 = 1.27e-06
 Conv-d = yes

 Amplitude    Transitions between orbitals
 -0.2660       1 (B3u) A                 ->    6 (B3u) A                  
 -0.2660       1 (B3u) B                 ->    6 (B3u) B                  
 -0.2660       1 (B2u) A                 ->    5 (B2u) A                  
 -0.2660       1 (B2u) B                 ->    5 (B2u) B                  
 -0.2330       2 (Ag) A                  ->    9 (Ag) A                   
 -0.2330       2 (Ag) B                  ->    9 (Ag) B                   
 -0.2307       2 (Ag) A                  ->    7 (Ag) A                   
 -0.2307       2 (Ag) B                  ->    7 (Ag) B                   
  0.1655       1 (Ag) A                  ->    8 (Ag) A                   
  0.1655       1 (Ag) B                  ->    8 (Ag) B                   
  0.1413       1 (B3u) A                 ->    9 (B3u) A                  
  0.1413       1 (B3u) B                 ->    9 (B3u) B                  
  0.1413       1 (B2u) A                 ->    8 (B2u) A                  
  0.1413       1 (B2u) B                 ->    8 (B2u) B                  
  0.1348       1 (Ag) A                  ->    12 (Ag) A                  
  0.1348       1 (Ag) B                  ->    12 (Ag) B                  
 -0.1121       1 (B3u) A                 ->    8 (B3u) A                  
 -0.1121       1 (B3u) B                 ->    8 (B3u) B                  
 -0.1121       1 (B2u) A                 ->    7 (B2u) A                  
 -0.1121       1 (B2u) B                 ->    7 (B2u) B                  
 -0.1104       2 (Ag) A                  ->    13 (Ag) A                  
 -0.1104       2 (Ag) B                  ->    13 (Ag) B                  

              Summary of significant orbitals:

               Number  Type             Irrep      Energy
               1       Occ  Alpha       1 (Ag)    -11.2393
               4       Occ  Alpha       2 (Ag)    -11.2375
               3       Occ  Alpha       1 (B2u)    -11.2387
               2       Occ  Alpha       1 (B3u)    -11.2387
               1       Occ  Beta        1 (Ag)    -11.2393
               4       Occ  Beta        2 (Ag)    -11.2375
               3       Occ  Beta        1 (B2u)    -11.2387
               2       Occ  Beta        1 (B3u)    -11.2387
               22      Vir  Alpha       7 (Ag)      0.0169
               25      Vir  Alpha       8 (Ag)      0.0335
               34      Vir  Alpha       9 (Ag)      0.0572
               43      Vir  Alpha      12 (Ag)      0.1027
               52      Vir  Alpha      13 (Ag)      0.1946
               24      Vir  Alpha       5 (B2u)      0.0216
               36      Vir  Alpha       7 (B2u)      0.0667
               42      Vir  Alpha       8 (B2u)      0.0928
               23      Vir  Alpha       6 (B3u)      0.0216
               35      Vir  Alpha       8 (B3u)      0.0667
               41      Vir  Alpha       9 (B3u)      0.0928
               22      Vir  Beta        7 (Ag)      0.0169
               25      Vir  Beta        8 (Ag)      0.0335
               34      Vir  Beta        9 (Ag)      0.0572
               43      Vir  Beta       12 (Ag)      0.1027
               52      Vir  Beta       13 (Ag)      0.1946
               24      Vir  Beta        5 (B2u)      0.0216
               36      Vir  Beta        7 (B2u)      0.0667
               42      Vir  Beta        8 (B2u)      0.0928
               23      Vir  Beta        6 (B3u)      0.0216
               35      Vir  Beta        8 (B3u)      0.0667
               41      Vir  Beta        9 (B3u)      0.0928


 EOMEE transition 5/Ag
 Total energy = -221.00986380 a.u.  Excitation energy = 288.8313 eV.
 R0^2 = 0.0000  R1^2 = 0.8001  R2_CCVV^2 = 0.0016  R2_COVV^2 = 0.0991  Res^2 = 2.14e-06
 Conv-d = yes

 Amplitude    Transitions between orbitals
 -0.3078       1 (Ag) A                  ->    7 (Ag) A                   
 -0.3078       1 (Ag) B                  ->    7 (Ag) B                   
 -0.2871       1 (Ag) A                  ->    9 (Ag) A                   
 -0.2871       1 (Ag) B                  ->    9 (Ag) B                   
 -0.2107       1 (B2u) A                 ->    5 (B2u) A                  
 -0.2107       1 (B2u) B                 ->    5 (B2u) B                  
  0.2107       1 (B3u) A                 ->    6 (B3u) A                  
  0.2107       1 (B3u) B                 ->    6 (B3u) B                  
 -0.1341       1 (Ag) A                  ->    13 (Ag) A                  
 -0.1341       1 (Ag) B                  ->    13 (Ag) B                  
  0.1225       1 (B2u) A                 ->    8 (B2u) A                  
  0.1225       1 (B2u) B                 ->    8 (B2u) B                  
 -0.1225       1 (B3u) A                 ->    9 (B3u) A                  
 -0.1225       1 (B3u) B                 ->    9 (B3u) B                  
  0.1200       1 (B1g) A                 ->    4 (B1g) A                  
  0.1200       1 (B1g) B                 ->    4 (B1g) B                  
  0.1200       2 (Ag) A                  ->    8 (Ag) A                   
  0.1200       2 (Ag) B                  ->    8 (Ag) B                   

              Summary of significant orbitals:

               Number  Type             Irrep      Energy
               1       Occ  Alpha       1 (Ag)    -11.2393
               4       Occ  Alpha       2 (Ag)    -11.2375
               5       Occ  Alpha       1 (B1g)    -11.2375
               3       Occ  Alpha       1 (B2u)    -11.2387
               2       Occ  Alpha       1 (B3u)    -11.2387
               1       Occ  Beta        1 (Ag)    -11.2393
               4       Occ  Beta        2 (Ag)    -11.2375
               5       Occ  Beta        1 (B1g)    -11.2375
               3       Occ  Beta        1 (B2u)    -11.2387
               2       Occ  Beta        1 (B3u)    -11.2387
               22      Vir  Alpha       7 (Ag)      0.0169
               25      Vir  Alpha       8 (Ag)      0.0335
               34      Vir  Alpha       9 (Ag)      0.0572
               52      Vir  Alpha      13 (Ag)      0.1946
               26      Vir  Alpha       4 (B1g)      0.0335
               24      Vir  Alpha       5 (B2u)      0.0216
               42      Vir  Alpha       8 (B2u)      0.0928
               23      Vir  Alpha       6 (B3u)      0.0216
               41      Vir  Alpha       9 (B3u)      0.0928
               22      Vir  Beta        7 (Ag)      0.0169
               25      Vir  Beta        8 (Ag)      0.0335
               34      Vir  Beta        9 (Ag)      0.0572
               52      Vir  Beta       13 (Ag)      0.1946
               26      Vir  Beta        4 (B1g)      0.0335
               24      Vir  Beta        5 (B2u)      0.0216
               42      Vir  Beta        8 (B2u)      0.0928
               23      Vir  Beta        6 (B3u)      0.0216
               41      Vir  Beta        9 (B3u)      0.0928


 EOMEE transition 6/Ag
 Total energy = -220.99221323 a.u.  Excitation energy = 289.3116 eV.
 R0^2 = 0.0000  R1^2 = 0.8005  R2_CCVV^2 = 0.0016  R2_COVV^2 = 0.0989  Res^2 = 2.56e-06
 Conv-d = yes

 Amplitude    Transitions between orbitals
  0.4376       2 (Ag) A                  ->    9 (Ag) A                   
  0.4376       2 (Ag) B                  ->    9 (Ag) B                   
  0.2112       2 (Ag) A                  ->    13 (Ag) A                  
  0.2112       2 (Ag) B                  ->    13 (Ag) B                  
 -0.2088       2 (Ag) A                  ->    11 (Ag) A                  
 -0.2088       2 (Ag) B                  ->    11 (Ag) B                  
 -0.1950       2 (Ag) A                  ->    7 (Ag) A                   
 -0.1950       2 (Ag) B                  ->    7 (Ag) B                   
 -0.1177       2 (B3u) A                 ->    6 (B3u) A                  
 -0.1177       2 (B3u) B                 ->    6 (B3u) B                  
 -0.1013       2 (B3u) A                 ->    8 (B3u) A                  
 -0.1013       2 (B3u) B                 ->    8 (B3u) B                  

              Summary of significant orbitals:

               Number  Type             Irrep      Energy
               4       Occ  Alpha       2 (Ag)    -11.2375
               6       Occ  Alpha       2 (B3u)    -11.2369
               4       Occ  Beta        2 (Ag)    -11.2375
               6       Occ  Beta        2 (B3u)    -11.2369
               22      Vir  Alpha       7 (Ag)      0.0169
               34      Vir  Alpha       9 (Ag)      0.0572
               40      Vir  Alpha      11 (Ag)      0.0843
               52      Vir  Alpha      13 (Ag)      0.1946
               23      Vir  Alpha       6 (B3u)      0.0216
               35      Vir  Alpha       8 (B3u)      0.0667
               22      Vir  Beta        7 (Ag)      0.0169
               34      Vir  Beta        9 (Ag)      0.0572
               40      Vir  Beta       11 (Ag)      0.0843
               52      Vir  Beta       13 (Ag)      0.1946
               23      Vir  Beta        6 (B3u)      0.0216
               35      Vir  Beta        8 (B3u)      0.0667


 EOMEE transition 7/Ag
 Total energy = -220.99036653 a.u.  Excitation energy = 289.3619 eV.
 R0^2 = 0.0000  R1^2 = 0.8006  R2_CCVV^2 = 0.0016  R2_COVV^2 = 0.0989  Res^2 = 5.78e-06
 Conv-d = yes

 Amplitude    Transitions between orbitals
 -0.4426       1 (Ag) A                  ->    9 (Ag) A                   
 -0.4426       1 (Ag) B                  ->    9 (Ag) B                   
 -0.2123       1 (Ag) A                  ->    13 (Ag) A                  
 -0.2123       1 (Ag) B                  ->    13 (Ag) B                  
  0.2043       1 (Ag) A                  ->    11 (Ag) A                  
  0.2043       1 (Ag) B                  ->    11 (Ag) B                  
  0.1836       1 (Ag) A                  ->    7 (Ag) A                   
  0.1836       1 (Ag) B                  ->    7 (Ag) B                   
 -0.1157       2 (Ag) A                  ->    8 (Ag) A                   
 -0.1157       2 (Ag) B                  ->    8 (Ag) B                   
 -0.1157       1 (B1g) A                 ->    4 (B1g) A                  
 -0.1157       1 (B1g) B                 ->    4 (B1g) B                  

              Summary of significant orbitals:

               Number  Type             Irrep      Energy
               1       Occ  Alpha       1 (Ag)    -11.2393
               4       Occ  Alpha       2 (Ag)    -11.2375
               5       Occ  Alpha       1 (B1g)    -11.2375
               1       Occ  Beta        1 (Ag)    -11.2393
               4       Occ  Beta        2 (Ag)    -11.2375
               5       Occ  Beta        1 (B1g)    -11.2375
               22      Vir  Alpha       7 (Ag)      0.0169
               25      Vir  Alpha       8 (Ag)      0.0335
               34      Vir  Alpha       9 (Ag)      0.0572
               40      Vir  Alpha      11 (Ag)      0.0843
               52      Vir  Alpha      13 (Ag)      0.1946
               26      Vir  Alpha       4 (B1g)      0.0335
               22      Vir  Beta        7 (Ag)      0.0169
               25      Vir  Beta        8 (Ag)      0.0335
               34      Vir  Beta        9 (Ag)      0.0572
               40      Vir  Beta       11 (Ag)      0.0843
               52      Vir  Beta       13 (Ag)      0.1946
               26      Vir  Beta        4 (B1g)      0.0335


 EOMEE transition 8/Ag
 Total energy = -220.98856045 a.u.  Excitation energy = 289.4110 eV.
 R0^2 = 0.0000  R1^2 = 0.7989  R2_CCVV^2 = 0.0016  R2_COVV^2 = 0.0997  Res^2 = 5.60e-06
 Conv-d = yes

 Amplitude    Transitions between orbitals
 -0.3042       2 (Ag) A                  ->    8 (Ag) A                   
 -0.3042       2 (Ag) B                  ->    8 (Ag) B                   
  0.3042       1 (B1g) A                 ->    4 (B1g) A                  
  0.3042       1 (B1g) B                 ->    4 (B1g) B                  
  0.2792       2 (B3u) A                 ->    6 (B3u) A                  
  0.2792       2 (B3u) B                 ->    6 (B3u) B                  
 -0.1682       2 (Ag) A                  ->    12 (Ag) A                  
 -0.1682       2 (Ag) B                  ->    12 (Ag) B                  
  0.1682       1 (B1g) A                 ->    6 (B1g) A                  
  0.1682       1 (B1g) B                 ->    6 (B1g) B                  
 -0.1002       1 (B3u) A                 ->    7 (B3u) A                  
 -0.1002       1 (B3u) B                 ->    7 (B3u) B                  

              Summary of significant orbitals:

               Number  Type             Irrep      Energy
               4       Occ  Alpha       2 (Ag)    -11.2375
               5       Occ  Alpha       1 (B1g)    -11.2375
               2       Occ  Alpha       1 (B3u)    -11.2387
               6       Occ  Alpha       2 (B3u)    -11.2369
               4       Occ  Beta        2 (Ag)    -11.2375
               5       Occ  Beta        1 (B1g)    -11.2375
               2       Occ  Beta        1 (B3u)    -11.2387
               6       Occ  Beta        2 (B3u)    -11.2369
               25      Vir  Alpha       8 (Ag)      0.0335
               43      Vir  Alpha      12 (Ag)      0.1027
               26      Vir  Alpha       4 (B1g)      0.0335
               44      Vir  Alpha       6 (B1g)      0.1027
               23      Vir  Alpha       6 (B3u)      0.0216
               30      Vir  Alpha       7 (B3u)      0.0487
               25      Vir  Beta        8 (Ag)      0.0335
               43      Vir  Beta       12 (Ag)      0.1027
               26      Vir  Beta        4 (B1g)      0.0335
               44      Vir  Beta        6 (B1g)      0.1027
               23      Vir  Beta        6 (B3u)      0.0216
               30      Vir  Beta        7 (B3u)      0.0487


 EOMEE transition 9/Ag
 Total energy = -220.98834228 a.u.  Excitation energy = 289.4169 eV.
 R0^2 = 0.0000  R1^2 = 0.7984  R2_CCVV^2 = 0.0016  R2_COVV^2 = 0.1000  Res^2 = 7.89e-06
 Conv-d = yes

 Amplitude    Transitions between orbitals
 -0.2830       2 (Ag) A                  ->    8 (Ag) A                   
 -0.2830       2 (Ag) B                  ->    8 (Ag) B                   
 -0.2830       1 (B1g) A                 ->    4 (B1g) A                  
 -0.2830       1 (B1g) B                 ->    4 (B1g) B                  
  0.2380       1 (B3u) A                 ->    6 (B3u) A                  
  0.2380       1 (B3u) B                 ->    6 (B3u) B                  
 -0.2380       1 (B2u) A                 ->    5 (B2u) A                  
 -0.2380       1 (B2u) B                 ->    5 (B2u) B                  
 -0.1633       2 (Ag) A                  ->    12 (Ag) A                  
 -0.1633       2 (Ag) B                  ->    12 (Ag) B                  
 -0.1633       1 (B1g) A                 ->    6 (B1g) A                  
 -0.1633       1 (B1g) B                 ->    6 (B1g) B                  
 -0.1262       2 (B3u) A                 ->    7 (B3u) A                  
 -0.1262       2 (B3u) B                 ->    7 (B3u) B                  

              Summary of significant orbitals:

               Number  Type             Irrep      Energy
               4       Occ  Alpha       2 (Ag)    -11.2375
               5       Occ  Alpha       1 (B1g)    -11.2375
               3       Occ  Alpha       1 (B2u)    -11.2387
               2       Occ  Alpha       1 (B3u)    -11.2387
               6       Occ  Alpha       2 (B3u)    -11.2369
               4       Occ  Beta        2 (Ag)    -11.2375
               5       Occ  Beta        1 (B1g)    -11.2375
               3       Occ  Beta        1 (B2u)    -11.2387
               2       Occ  Beta        1 (B3u)    -11.2387
               6       Occ  Beta        2 (B3u)    -11.2369
               25      Vir  Alpha       8 (Ag)      0.0335
               43      Vir  Alpha      12 (Ag)      0.1027
               26      Vir  Alpha       4 (B1g)      0.0335
               44      Vir  Alpha       6 (B1g)      0.1027
               24      Vir  Alpha       5 (B2u)      0.0216
               23      Vir  Alpha       6 (B3u)      0.0216
               30      Vir  Alpha       7 (B3u)      0.0487
               25      Vir  Beta        8 (Ag)      0.0335
               43      Vir  Beta       12 (Ag)      0.1027
               26      Vir  Beta        4 (B1g)      0.0335
               44      Vir  Beta        6 (B1g)      0.1027
               24      Vir  Beta        5 (B2u)      0.0216
               23      Vir  Beta        6 (B3u)      0.0216
               30      Vir  Beta        7 (B3u)      0.0487


 EOMEE transition 10/Ag
 Total energy = -220.98643804 a.u.  Excitation energy = 289.4688 eV.
 R0^2 = 0.0000  R1^2 = 0.7988  R2_CCVV^2 = 0.0016  R2_COVV^2 = 0.0998  Res^2 = 6.64e-06
 Conv-d = yes

 Amplitude    Transitions between orbitals
  0.4306       1 (Ag) A                  ->    8 (Ag) A                   
  0.4306       1 (Ag) B                  ->    8 (Ag) B                   
  0.2320       1 (Ag) A                  ->    12 (Ag) A                  
  0.2320       1 (Ag) B                  ->    12 (Ag) B                  
  0.1902       1 (B2u) A                 ->    5 (B2u) A                  
  0.1902       1 (B2u) B                 ->    5 (B2u) B                  
  0.1902       1 (B3u) A                 ->    6 (B3u) A                  
  0.1902       1 (B3u) B                 ->    6 (B3u) B                  
  0.1268       1 (B2u) A                 ->    6 (B2u) A                  
  0.1268       1 (B2u) B                 ->    6 (B2u) B                  
 -0.1260       1 (Ag) A                  ->    10 (Ag) A                  
 -0.1260       1 (Ag) B                  ->    10 (Ag) B                  

              Summary of significant orbitals:

               Number  Type             Irrep      Energy
               1       Occ  Alpha       1 (Ag)    -11.2393
               3       Occ  Alpha       1 (B2u)    -11.2387
               2       Occ  Alpha       1 (B3u)    -11.2387
               1       Occ  Beta        1 (Ag)    -11.2393
               3       Occ  Beta        1 (B2u)    -11.2387
               2       Occ  Beta        1 (B3u)    -11.2387
               25      Vir  Alpha       8 (Ag)      0.0335
               38      Vir  Alpha      10 (Ag)      0.0699
               43      Vir  Alpha      12 (Ag)      0.1027
               24      Vir  Alpha       5 (B2u)      0.0216
               31      Vir  Alpha       6 (B2u)      0.0544
               23      Vir  Alpha       6 (B3u)      0.0216
               25      Vir  Beta        8 (Ag)      0.0335
               38      Vir  Beta       10 (Ag)      0.0699
               43      Vir  Beta       12 (Ag)      0.1027
               24      Vir  Beta        5 (B2u)      0.0216
               31      Vir  Beta        6 (B2u)      0.0544
               23      Vir  Beta        6 (B3u)      0.0216


      CVS-EOM-CCSD/MP2 left amplitudes will be solved using Davidson.
        Amplitudes will be solved using MOM  algorithm.
     Hard-coded thresholds: 
     LinDepThresh=1.00e-15  NormThresh=1.00e-06  ReorthogonThresh=1.00e-02

      Roots     MaxVec    MaxIter   Precond   Conv      Shift    
      10        1000      200       1         1.00e-05  0.00e+00  
 ------------------------------------------------------------------------------
      Iter ConvRoots NVecs ResNorm Current eigenvalues (eV)
 ------------------------------------------------------------------------------
      0    0      10    3.04e-02   287.7651   287.8156   288.7688   288.8102   288.8313   289.3116   289.3619   289.4110   289.4169   289.4688   
      1    0      20    1.71e+01   287.7651   287.8155   288.7687   288.8102   288.8313   289.3116   289.3618   289.4110   289.4168   289.4687   
      2    0      30    1.35e-01   287.7652   287.8156   288.7687   288.8102   288.8313   289.3116   289.3619   289.4111   289.4169   289.4688   
      3    0      40    1.13e-03   287.7652   287.8156   288.7687   288.8102   288.8313   289.3115   289.3618   289.4111   289.4169   289.4687   
      4    0      50    9.11e-04   287.7652   287.8156   288.7687   288.8102   288.8313   289.3115   289.3618   289.4111   289.4169   289.4687   
      5    1      60    2.13e-04   287.7652   287.8156   288.7687*  288.8102   288.8313   289.3115   289.3618   289.4111   289.4169   289.4687   
      6    0      69    2.09e-04   287.7652   287.8156   288.7687   288.8102   288.8312   289.3115   289.3618   289.4111   289.4169   289.4687   
      7    4      79    4.40e-05   287.7652*  287.8156*  288.7687   288.8102*  288.8312*  289.3115   289.3618   289.4111   289.4169   289.4687   
      8    4      85    2.74e-05   287.7652   287.8156*  288.7687*  288.8102*  288.8312*  289.3115   289.3618   289.4110   289.4168   289.4687   
      9    4      91    5.21e-04   287.7652*  287.8156*  288.7687   288.8102*  288.8312*  289.3115   289.3618   289.4109   289.4169   289.4686   
      10   3      97    4.30e-05   287.7652*  287.8156   288.7686   288.8102*  288.8312*  289.3115   289.3618   289.4110   289.4168   289.4687   
      11   5      104   2.01e-05   287.7652*  287.8156*  288.7686*  288.8102*  288.8312*  289.3115   289.3618   289.4110   289.4168   289.4686   
      12   4      109   1.31e-04   287.7652*  287.8156*  288.7686   288.8102*  288.8312*  289.3115   289.3618   289.4110   289.4169   289.4686   
      13   5      115   8.48e-05   287.7652*  287.8156*  288.7686*  288.8102*  288.8312*  289.3115   289.3617   289.4110   289.4168   289.4686   
      14   7      120   9.51e-06   287.7652*  287.8156*  288.7686*  288.8102*  288.8312*  289.3115   289.3618   289.4110*  289.4167   289.4686*  
      15   3      123   1.37e-03   287.7652   287.8156*  288.7686*  288.8102   288.8312   289.3115   289.3618   289.4110*  289.4169   289.4686   
Found complex roots...
      16   4      130   1.79e-05   287.7652*  287.8156*  288.7686*  288.8102   288.8312   289.3115*  289.3617   289.4110   289.4168   289.4686   
      17   8      136   1.11e-05   287.7652*  287.8156*  288.7686*  288.8102*  288.8312*  289.3115*  289.3618*  289.4110   289.4167*  289.4686   
      18   9      138   4.90e-06   287.7652*  287.8156*  288.7686*  288.8102*  288.8312*  289.3115*  289.3618*  289.4110   289.4167*  289.4686*  
      19   10     139   3.75e-06   287.7652*  287.8156*  288.7686*  288.8102*  288.8312*  289.3115*  289.3618*  289.4110*  289.4167*  289.4686*  

     Davidson procedure converged

        Solving for CVS-EOMEE-CCSD B1g singlet states.

       EOMEE-CCSD-SINGLES right amplitudes will be solved using Davidson.
[...]
 State A: cvs_eomee_ccsd/rhfref/singlets: 4/B3g
 State B: cvs_eomee_ccsd/rhfref/singlets: 8/B3g
 Transition dipole moment (a.u.):
   A->B: 0.000000 (X 0.000000, Y 0.000000, Z 0.000000)
   B->A: 0.000000 (X 0.000000, Y 0.000000, Z 0.000000)
 Oscillator strength (a.u.): 0.000000
 Norm of one-particle transition density matrix:
   A->B: 0.154088;   B->A: 0.155168
   ||gamma^AB||*||gamma^BA||: 0.023909

 ------------------------------------------------------------------------------
 State A: cvs_eomee_ccsd/rhfref/singlets: 4/B3g
 State B: cvs_eomee_ccsd/rhfref/singlets: 9/B3g
 Transition dipole moment (a.u.):
   A->B: 0.000000 (X 0.000000, Y 0.000000, Z 0.000000)
   B->A: 0.000000 (X 0.000000, Y 0.000000, Z 0.000000)
 Oscillator strength (a.u.): 0.000000
 Norm of one-particle transition density matrix:
   A->B: 0.432529;   B->A: 0.430854
   ||gamma^AB||*||gamma^BA||: 0.186357

 ------------------------------------------------------------------------------
 State A: cvs_eomee_ccsd/rhfref/singlets: 4/B3g
 State B: cvs_eomee_ccsd/rhfref/singlets: 10/B3g
 Transition dipole moment (a.u.):
   A->B: 0.000000 (X 0.000000, Y 0.000000, Z 0.000000)
   B->A: 0.000000 (X 0.000000, Y 0.000000, Z 0.000000)
 Oscillator strength (a.u.): 0.000000
 Norm of one-particle transition density matrix:
   A->B: 0.458060;   B->A: 0.456355
   ||gamma^AB||*||gamma^BA||: 0.209038

 ------------------------------------------------------------------------------
 State A: cvs_eomee_ccsd/rhfref/singlets: 5/B3g
 State B: cvs_eomee_ccsd/rhfref/singlets: 6/B3g
 Transition dipole moment (a.u.):
   A->B: 0.000000 (X 0.000000, Y 0.000000, Z 0.000000)
   B->A: 0.000000 (X 0.000000, Y 0.000000, Z 0.000000)
 Oscillator strength (a.u.): 0.000000
 Norm of one-particle transition density matrix:
   A->B: 0.623312;   B->A: 0.623587
   ||gamma^AB||*||gamma^BA||: 0.388689

 ------------------------------------------------------------------------------
 State A: cvs_eomee_ccsd/rhfref/singlets: 5/B3g
 State B: cvs_eomee_ccsd/rhfref/singlets: 7/B3g
 Transition dipole moment (a.u.):
   A->B: 0.000000 (X 0.000000, Y 0.000000, Z 0.000000)
   B->A: 0.000000 (X 0.000000, Y 0.000000, Z 0.000000)
 Oscillator strength (a.u.): 0.000000
 Norm of one-particle transition density matrix:
   A->B: 0.396225;   B->A: 0.397505
   ||gamma^AB||*||gamma^BA||: 0.157502

 ------------------------------------------------------------------------------
 State A: cvs_eomee_ccsd/rhfref/singlets: 5/B3g
 State B: cvs_eomee_ccsd/rhfref/singlets: 8/B3g
 Transition dipole moment (a.u.):
   A->B: 0.000000 (X 0.000000, Y 0.000000, Z 0.000000)
   B->A: 0.000000 (X 0.000000, Y 0.000000, Z 0.000000)
 Oscillator strength (a.u.): 0.000000
 Norm of one-particle transition density matrix:
   A->B: 0.169773;   B->A: 0.170825
   ||gamma^AB||*||gamma^BA||: 0.029002

 ------------------------------------------------------------------------------
 State A: cvs_eomee_ccsd/rhfref/singlets: 5/B3g
 State B: cvs_eomee_ccsd/rhfref/singlets: 9/B3g
 Transition dipole moment (a.u.):
   A->B: 0.000000 (X 0.000000, Y 0.000000, Z 0.000000)
   B->A: 0.000000 (X 0.000000, Y 0.000000, Z 0.000000)
 Oscillator strength (a.u.): 0.000000
 Norm of one-particle transition density matrix:
   A->B: 0.144306;   B->A: 0.145139
   ||gamma^AB||*||gamma^BA||: 0.020944

 ------------------------------------------------------------------------------
 State A: cvs_eomee_ccsd/rhfref/singlets: 5/B3g
 State B: cvs_eomee_ccsd/rhfref/singlets: 10/B3g
 Transition dipole moment (a.u.):
   A->B: 0.000000 (X 0.000000, Y 0.000000, Z 0.000000)
   B->A: 0.000000 (X 0.000000, Y 0.000000, Z 0.000000)
 Oscillator strength (a.u.): 0.000000
 Norm of one-particle transition density matrix:
   A->B: 0.162539;   B->A: 0.163199
   ||gamma^AB||*||gamma^BA||: 0.026526

 ------------------------------------------------------------------------------
 State A: cvs_eomee_ccsd/rhfref/singlets: 6/B3g
 State B: cvs_eomee_ccsd/rhfref/singlets: 7/B3g
 Transition dipole moment (a.u.):
   A->B: 0.000000 (X 0.000000, Y 0.000000, Z 0.000000)
   B->A: 0.000000 (X 0.000000, Y 0.000000, Z 0.000000)
 Oscillator strength (a.u.): 0.000000
 Norm of one-particle transition density matrix:
   A->B: 0.409486;   B->A: 0.410508
   ||gamma^AB||*||gamma^BA||: 0.168097

 ------------------------------------------------------------------------------
 State A: cvs_eomee_ccsd/rhfref/singlets: 6/B3g
 State B: cvs_eomee_ccsd/rhfref/singlets: 8/B3g
 Transition dipole moment (a.u.):
   A->B: 0.000000 (X 0.000000, Y 0.000000, Z 0.000000)
   B->A: 0.000000 (X 0.000000, Y 0.000000, Z 0.000000)
 Oscillator strength (a.u.): 0.000000
 Norm of one-particle transition density matrix:
   A->B: 0.222445;   B->A: 0.223908
   ||gamma^AB||*||gamma^BA||: 0.049807

 ------------------------------------------------------------------------------
 State A: cvs_eomee_ccsd/rhfref/singlets: 6/B3g
 State B: cvs_eomee_ccsd/rhfref/singlets: 9/B3g
 Transition dipole moment (a.u.):
   A->B: 0.000000 (X 0.000000, Y 0.000000, Z 0.000000)
   B->A: 0.000000 (X 0.000000, Y 0.000000, Z 0.000000)
 Oscillator strength (a.u.): 0.000000
 Norm of one-particle transition density matrix:
   A->B: 0.173132;   B->A: 0.173847
   ||gamma^AB||*||gamma^BA||: 0.030099

 ------------------------------------------------------------------------------
 State A: cvs_eomee_ccsd/rhfref/singlets: 6/B3g
 State B: cvs_eomee_ccsd/rhfref/singlets: 10/B3g
 Transition dipole moment (a.u.):
   A->B: 0.000000 (X 0.000000, Y 0.000000, Z 0.000000)
   B->A: 0.000000 (X 0.000000, Y 0.000000, Z 0.000000)
 Oscillator strength (a.u.): 0.000000
 Norm of one-particle transition density matrix:
   A->B: 0.176477;   B->A: 0.177113
   ||gamma^AB||*||gamma^BA||: 0.031256

 ------------------------------------------------------------------------------
 State A: cvs_eomee_ccsd/rhfref/singlets: 7/B3g
 State B: cvs_eomee_ccsd/rhfref/singlets: 8/B3g
 Transition dipole moment (a.u.):
   A->B: 0.000000 (X 0.000000, Y 0.000000, Z 0.000000)
   B->A: 0.000000 (X 0.000000, Y 0.000000, Z 0.000000)
 Oscillator strength (a.u.): 0.000000
 Norm of one-particle transition density matrix:
   A->B: 0.143530;   B->A: 0.145206
   ||gamma^AB||*||gamma^BA||: 0.020841

 ------------------------------------------------------------------------------
 State A: cvs_eomee_ccsd/rhfref/singlets: 7/B3g
 State B: cvs_eomee_ccsd/rhfref/singlets: 9/B3g
 Transition dipole moment (a.u.):
   A->B: 0.000000 (X 0.000000, Y 0.000000, Z 0.000000)
   B->A: 0.000000 (X 0.000000, Y 0.000000, Z 0.000000)
 Oscillator strength (a.u.): 0.000000
 Norm of one-particle transition density matrix:
   A->B: 0.243350;   B->A: 0.244471
   ||gamma^AB||*||gamma^BA||: 0.059492

 ------------------------------------------------------------------------------
 State A: cvs_eomee_ccsd/rhfref/singlets: 7/B3g
 State B: cvs_eomee_ccsd/rhfref/singlets: 10/B3g
 Transition dipole moment (a.u.):
   A->B: 0.000000 (X 0.000000, Y 0.000000, Z 0.000000)
   B->A: 0.000000 (X 0.000000, Y 0.000000, Z 0.000000)
 Oscillator strength (a.u.): 0.000000
 Norm of one-particle transition density matrix:
   A->B: 0.201467;   B->A: 0.202312
   ||gamma^AB||*||gamma^BA||: 0.040759

 ------------------------------------------------------------------------------
 State A: cvs_eomee_ccsd/rhfref/singlets: 8/B3g
 State B: cvs_eomee_ccsd/rhfref/singlets: 9/B3g
 Transition dipole moment (a.u.):
   A->B: 0.000000 (X 0.000000, Y 0.000000, Z 0.000000)
   B->A: 0.000000 (X 0.000000, Y 0.000000, Z 0.000000)
 Oscillator strength (a.u.): 0.000000
 Norm of one-particle transition density matrix:
   A->B: 0.433593;   B->A: 0.434379
   ||gamma^AB||*||gamma^BA||: 0.188344

 ------------------------------------------------------------------------------
 State A: cvs_eomee_ccsd/rhfref/singlets: 8/B3g
 State B: cvs_eomee_ccsd/rhfref/singlets: 10/B3g
 Transition dipole moment (a.u.):
   A->B: 0.000000 (X 0.000000, Y 0.000000, Z 0.000000)
   B->A: 0.000000 (X 0.000000, Y 0.000000, Z 0.000000)
 Oscillator strength (a.u.): 0.000000
 Norm of one-particle transition density matrix:
   A->B: 0.410512;   B->A: 0.411484
   ||gamma^AB||*||gamma^BA||: 0.168919

 ------------------------------------------------------------------------------
 State A: cvs_eomee_ccsd/rhfref/singlets: 9/B3g
 State B: cvs_eomee_ccsd/rhfref/singlets: 10/B3g
 Transition dipole moment (a.u.):
   A->B: 0.000000 (X 0.000000, Y 0.000000, Z 0.000000)
   B->A: 0.000000 (X 0.000000, Y 0.000000, Z 0.000000)
 Oscillator strength (a.u.): 0.000000
 Norm of one-particle transition density matrix:
   A->B: 0.635365;   B->A: 0.635542
   ||gamma^AB||*||gamma^BA||: 0.403801


 All requested transition properties have been computed

 Transition Properties:   CPU 20586.30 s  wall 4110.87 s

 Total ccman2 time:   CPU 119009.19 s  wall 18478.63 s

 
 --------------------------------------------------------------
             Orbital Energies (a.u.) and Symmetries
 --------------------------------------------------------------
 
 Alpha MOs, Restricted
 -- Occupied --                  
-11.239 -11.239 -11.239 -11.237 -11.237 -11.237  -1.153  -1.017
  1 Ag    1 B3u   1 B2u   2 Ag    1 B1g   2 B3u   3 Ag    3 B3u                
 -1.017  -0.826  -0.826  -0.712  -0.645  -0.621  -0.590  -0.590
  2 B2u   4 Ag    2 B1g   5 Ag    4 B3u   3 B2u   5 B3u   4 B2u                
 -0.502  -0.496  -0.496  -0.337  -0.337
  1 B1u   6 Ag    3 B1g   1 B2g   1 B3g                                        
 -- Virtual --                   
  0.017   0.022   0.022   0.033   0.033   0.034   0.044   0.044
  7 Ag    6 B3u   5 B2u   8 Ag    4 B1g   2 B1u   2 B2g   2 B3g                
  0.049   0.054   0.056   0.056   0.057   0.067   0.067   0.069
  7 B3u   6 B2u   3 B1u   1 Au    9 Ag    8 B3u   7 B2u   3 B2g                
  0.070   0.070   0.084   0.093   0.093   0.103   0.103   0.114
 10 Ag    5 B1g  11 Ag    9 B3u   8 B2u  12 Ag    6 B1g   4 B1u                
  0.114   0.131   0.172   0.186   0.186   0.186   0.195   0.204
  2 Au   10 B3u   5 B1u   4 B2g   3 B3g   9 B2u  13 Ag   14 Ag                 
  0.204   0.225   0.225   0.225   0.237   0.239   0.239   0.247
  7 B1g  11 B3u  10 B2u   5 B2g  15 Ag    6 B1u   3 Au   16 Ag                 
  0.247   0.250   0.250   0.255   0.255   0.281   0.289   0.289
  8 B1g  12 B3u  11 B2u  13 B3u  12 B2u  14 B3u  17 Ag    9 B1g                
  0.303   0.338   0.374   0.413   0.426   0.426   0.454   0.454
 10 B1g  18 Ag    6 B2g  15 B3u  16 B3u  13 B2u  19 Ag   11 B1g                
  0.515   0.515   0.522   0.522   0.621   0.623   0.719   0.739
 20 Ag   12 B1g  17 B3u  14 B2u  21 Ag   15 B2u  18 B3u  19 B3u                
  0.739   0.751   0.752   0.758   0.758   0.785   0.785   0.822
 16 B2u   7 B1u  13 B1g  22 Ag   14 B1g   7 B2g   4 B3g  23 Ag                 
  0.836   0.836   0.891   0.896   0.939   0.939   0.960   0.960
  8 B1u   4 Au   20 B3u   8 B2g  21 B3u  17 B2u  24 Ag   15 B1g                
  0.976   1.016   1.016   1.063   1.063   1.108   1.110   1.110
 25 Ag   22 B3u  18 B2u  26 Ag   16 B1g  23 B3u  24 B3u  19 B2u                
  1.131   1.170   1.204   1.204   1.250   1.324   1.324   1.392
 17 B1g   9 B1u  27 Ag   18 B1g   5 B3g   9 B2g   6 B3g  10 B1u                
  1.392   1.475   1.561   1.720   1.789   1.794   1.794   1.829
  5 Au   25 B3u  28 Ag   20 B2u  29 Ag   26 B3u  21 B2u  10 B2g                
  1.848   1.848   1.910   1.910   1.933   1.933   1.993   2.056
 11 B1u   6 Au   19 B1g  30 Ag   22 B2u  27 B3u  12 B1u  11 B2g                
  2.056   2.109   2.109   2.132   2.239   2.239   2.239   2.253
  7 B3g  31 Ag   20 B1g  23 B2u  21 B1g   8 B3g  12 B2g  28 B3u                
  2.253   2.301   2.350   2.350   2.381   2.381   2.642   2.664
 24 B2u  29 B3u  22 B1g  32 Ag   13 B1u   7 Au   13 B2g   8 Au                 
  2.749   2.749   2.768   2.831   2.831   2.941   2.941   2.977
 33 Ag   23 B1g  34 Ag   30 B3u  25 B2u  26 B2u  31 B3u  35 Ag                 
  2.980   3.031   3.031   3.035   3.044   3.044   3.082   3.208
 32 B3u  33 B3u  27 B2u  34 B3u  36 Ag   24 B1g  14 B1u  14 B2g                
  3.208   3.268   3.302   3.302   3.339   3.339   3.487   3.557
  9 B3g  25 B1g  15 B1u   9 Au   37 Ag   26 B1g  15 B2g  28 B2u                
  3.775   3.775   3.912   3.912   3.938   4.074   4.397   4.397
 27 B1g  38 Ag   35 B3u  29 B2u  39 Ag   36 B3u  40 Ag   28 B1g                
  4.485   4.533   4.533   5.134   5.279   5.461   5.461   5.789
 37 B3u  38 B3u  30 B2u  41 Ag   29 B1g  39 B3u  31 B2u  42 Ag                 
  5.789   6.211  20.654  20.721  20.721  20.862  20.862  21.155
 30 B1g  40 B3u  43 Ag   41 B3u  32 B2u  44 Ag   31 B1g  42 B3u                
 80.225  80.296  80.296  80.416  80.416  80.640 322.068 322.132
 45 Ag   43 B3u  33 B2u  46 Ag   32 B1g  44 B3u  47 Ag   45 B3u                
322.132 322.234 322.234 322.4161431.6381431.6941431.6941431.781
 34 B2u  48 Ag   33 B1g  46 B3u  49 Ag   47 B3u  35 B2u  50 Ag                 
*******1431.9338749.8788749.9238749.9238749.9948749.9948750.117
 34 B1g  48 B3u  51 Ag   49 B3u  36 B2u  52 Ag   35 B1g  50 B3u                
 
 Beta MOs, Restricted
 -- Occupied --                  
-11.239 -11.239 -11.239 -11.237 -11.237 -11.237  -1.153  -1.017
  1 Ag    1 B3u   1 B2u   2 Ag    1 B1g   2 B3u   3 Ag    3 B3u                
 -1.017  -0.826  -0.826  -0.712  -0.645  -0.621  -0.590  -0.590
  2 B2u   4 Ag    2 B1g   5 Ag    4 B3u   3 B2u   5 B3u   4 B2u                
 -0.502  -0.496  -0.496  -0.337  -0.337
  1 B1u   6 Ag    3 B1g   1 B2g   1 B3g                                        
 -- Virtual --                   
  0.017   0.022   0.022   0.033   0.033   0.034   0.044   0.044
  7 Ag    6 B3u   5 B2u   8 Ag    4 B1g   2 B1u   2 B2g   2 B3g                
  0.049   0.054   0.056   0.056   0.057   0.067   0.067   0.069
  7 B3u   6 B2u   3 B1u   1 Au    9 Ag    8 B3u   7 B2u   3 B2g                
  0.070   0.070   0.084   0.093   0.093   0.103   0.103   0.114
 10 Ag    5 B1g  11 Ag    9 B3u   8 B2u  12 Ag    6 B1g   4 B1u                
  0.114   0.131   0.172   0.186   0.186   0.186   0.195   0.204
  2 Au   10 B3u   5 B1u   4 B2g   3 B3g   9 B2u  13 Ag   14 Ag                 
  0.204   0.225   0.225   0.225   0.237   0.239   0.239   0.247
  7 B1g  11 B3u  10 B2u   5 B2g  15 Ag    6 B1u   3 Au   16 Ag                 
  0.247   0.250   0.250   0.255   0.255   0.281   0.289   0.289
  8 B1g  12 B3u  11 B2u  13 B3u  12 B2u  14 B3u  17 Ag    9 B1g                
  0.303   0.338   0.374   0.413   0.426   0.426   0.454   0.454
 10 B1g  18 Ag    6 B2g  15 B3u  16 B3u  13 B2u  19 Ag   11 B1g                
  0.515   0.515   0.522   0.522   0.621   0.623   0.719   0.739
 20 Ag   12 B1g  17 B3u  14 B2u  21 Ag   15 B2u  18 B3u  19 B3u                
  0.739   0.751   0.752   0.758   0.758   0.785   0.785   0.822
 16 B2u   7 B1u  13 B1g  22 Ag   14 B1g   7 B2g   4 B3g  23 Ag                 
  0.836   0.836   0.891   0.896   0.939   0.939   0.960   0.960
  8 B1u   4 Au   20 B3u   8 B2g  21 B3u  17 B2u  24 Ag   15 B1g                
  0.976   1.016   1.016   1.063   1.063   1.108   1.110   1.110
 25 Ag   22 B3u  18 B2u  26 Ag   16 B1g  23 B3u  24 B3u  19 B2u                
  1.131   1.170   1.204   1.204   1.250   1.324   1.324   1.392
 17 B1g   9 B1u  27 Ag   18 B1g   5 B3g   9 B2g   6 B3g  10 B1u                
  1.392   1.475   1.561   1.720   1.789   1.794   1.794   1.829
  5 Au   25 B3u  28 Ag   20 B2u  29 Ag   26 B3u  21 B2u  10 B2g                
  1.848   1.848   1.910   1.910   1.933   1.933   1.993   2.056
 11 B1u   6 Au   19 B1g  30 Ag   22 B2u  27 B3u  12 B1u  11 B2g                
  2.056   2.109   2.109   2.132   2.239   2.239   2.239   2.253
  7 B3g  31 Ag   20 B1g  23 B2u  21 B1g   8 B3g  12 B2g  28 B3u                
  2.253   2.301   2.350   2.350   2.381   2.381   2.642   2.664
 24 B2u  29 B3u  22 B1g  32 Ag   13 B1u   7 Au   13 B2g   8 Au                 
  2.749   2.749   2.768   2.831   2.831   2.941   2.941   2.977
 33 Ag   23 B1g  34 Ag   30 B3u  25 B2u  26 B2u  31 B3u  35 Ag                 
  2.980   3.031   3.031   3.035   3.044   3.044   3.082   3.208
 32 B3u  33 B3u  27 B2u  34 B3u  36 Ag   24 B1g  14 B1u  14 B2g                
  3.208   3.268   3.302   3.302   3.339   3.339   3.487   3.557
  9 B3g  25 B1g  15 B1u   9 Au   37 Ag   26 B1g  15 B2g  28 B2u                
  3.775   3.775   3.912   3.912   3.938   4.074   4.397   4.397
 27 B1g  38 Ag   35 B3u  29 B2u  39 Ag   36 B3u  40 Ag   28 B1g                
  4.485   4.533   4.533   5.134   5.279   5.461   5.461   5.789
 37 B3u  38 B3u  30 B2u  41 Ag   29 B1g  39 B3u  31 B2u  42 Ag                 
  5.789   6.211  20.654  20.721  20.721  20.862  20.862  21.155
 30 B1g  40 B3u  43 Ag   41 B3u  32 B2u  44 Ag   31 B1g  42 B3u                
 80.225  80.296  80.296  80.416  80.416  80.640 322.068 322.132
 45 Ag   43 B3u  33 B2u  46 Ag   32 B1g  44 B3u  47 Ag   45 B3u                
322.132 322.234 322.234 322.4161431.6381431.6941431.6941431.781
 34 B2u  48 Ag   33 B1g  46 B3u  49 Ag   47 B3u  35 B2u  50 Ag                 
*******1431.9338749.8788749.9238749.9238749.9948749.9948750.117
 34 B1g  48 B3u  51 Ag   49 B3u  36 B2u  52 Ag   35 B1g  50 B3u                
 --------------------------------------------------------------
 
          Ground-State Mulliken Net Atomic Charges

     Atom                 Charge (a.u.)
  ----------------------------------------
      1 H                     0.192118
      2 C                    -0.192118
      3 C                    -0.192118
      4 H                     0.192118
      5 C                    -0.192118
      6 H                     0.192118
      7 C                    -0.192118
      8 H                     0.192118
      9 C                    -0.192118
     10 H                     0.192118
     11 C                    -0.192118
     12 H                     0.192118
  ----------------------------------------
  Sum of atomic charges =    -0.000000

 -----------------------------------------------------------------
                    Cartesian Multipole Moments
 -----------------------------------------------------------------
    Charge (ESU x 10^10)
                 0.0000
    Dipole Moment (Debye)
         X      -0.0000      Y       0.0000      Z      -0.0000
       Tot       0.0000
    Quadrupole Moments (Debye-Ang)
        XX     -31.9206     XY      -0.0000     YY     -31.9206
        XZ       0.0000     YZ      -0.0000     ZZ     -41.2888
    Octopole Moments (Debye-Ang^2)
       XXX      -0.0000    XXY      -0.0000    XYY       0.0000
       YYY      -0.0000    XXZ       0.0000    XYZ       0.0000
       YYZ      -0.0000    XZZ      -0.0000    YZZ       0.0000
       ZZZ       0.0000
    Hexadecapole Moments (Debye-Ang^3)
      XXXX    -270.4594   XXXY      -0.0000   XXYY     -90.1531
      XYYY       0.0000   YYYY    -270.4594   XXXZ      -0.0000
      XXYZ      -0.0000   XYYZ       0.0000   YYYZ      -0.0000
      XXZZ     -66.0953   XYZZ       0.0000   YYZZ     -66.0953
      XZZZ       0.0000   YZZZ      -0.0000   ZZZZ     -52.3832
 -----------------------------------------------------------------
Archival summary:
1\1\n-62-23-14\SP\ProcedureUnspecified\BasisUnspecified\66\malop\MonNov2617:12:382018MonNov2617:12:382018\0\\#,ProcedureUnspecified,BasisUnspecified,\\0,1\C\H,1,1.08144\C,1,1.39359,2,120\H,3,1.08144,1,120,2,-0,0\C,3,1.39359,1,120,2,180,0\H,5,1.08144,3,120,1,180,0\C,5,1.39359,3,120,1,-0,0\H,7,1.08144,5,120,3,180,0\C,7,1.39359,5,120,3,0,0\H,9,1.08144,7,120,5,180,0\C,9,1.39359,7,120,5,-0,0\H,11,1.08144,9,120,7,-180,0\\HF=-230.756847\\@

 Total job time:  18541.21s(wall), 119230.42s(cpu) 
 Mon Nov 26 17:12:38 2018

        *************************************************************
        *                                                           *
        *  Thank you very much for using Q-Chem.  Have a nice day.  *
        *                                                           *
        *************************************************************


