n-62-29-25 10.66.29
Q-Chem Developer Version! Running on 10.66.29.*
                  Welcome to Q-Chem
     A Quantum Leap Into The Future Of Chemistry


 Q-Chem 5.1, Q-Chem, Inc., Pleasanton, CA (2018)

 Yihan Shao,  Zhengting Gan,  E. Epifanovsky,  A. T. B. Gilbert,  M. Wormit,  
 J. Kussmann,  A. W. Lange,  A. Behn,  Jia Deng,  Xintian Feng,  D. Ghosh,  
 M. Goldey,  P. R. Horn,  L. D. Jacobson,  I. Kaliman,  T. Kus,  A. Landau,  
 Jie Liu,  E. I. Proynov,  R. M. Richard,  R. P. Steele,  E. J. Sundstrom,  
 H. L. Woodcock III,  P. M. Zimmerman,  D. Zuev,  B. Albrecht,  E. Alguire,  
 S. A. Baeppler,  D. Barton,  Z. Benda,  Y. A. Bernard,  E. J. Berquist,  
 K. B. Bravaya,  H. Burton,  D. Casanova,  Chun-Min Chang,  Yunqing Chen,  
 A. Chien,  K. D. Closser,  M. P. Coons,  S. Coriani,  S. Dasgupta,  
 A. L. Dempwolff,  M. Diedenhofen,  Hainam Do,  R. G. Edgar,  Po-Tung Fang,  
 S. Faraji,  S. Fatehi,  Qingguo Feng,  K. D. Fenk,  J. Fosso-Tande,  
 Qinghui Ge,  A. Ghysels,  G. Gidofalvi,  J. Gomes,  J. Gonthier,  A. Gunina,  
 M. W. D. Hanson-Heine,  P. H. P. Harbach,  A. W. Hauser,  J. E. Herr,  
 E. G. Hohenstein,  Z. C. Holden,  Kerwin Hui,  T.-C. Jagau,  Hyunjun Ji,  
 B. Kaduk,  K. Khistyaev,  Jaehoon Kim,  P. Klunzinger,  K. Koh,  
 D. Kosenkov,  L. Koulias,  T. Kowalczyk,  C. M. Krauter,  A. Kunitsa,  
 Ka Un Lao,  A. Laurent,  K. V. Lawler,  Joonho Lee,  D. Lefrancois,  
 S. Lehtola,  D. S. Levine,  Yi-Pei Li,  You-Sheng Lin,  Fenglai Liu,  
 E. Livshits,  A. Luenser,  P. Manohar,  E. Mansoor,  S. F. Manzer,  
 Shan-Ping Mao,  Yuezhi Mao,  N. Mardirossian,  A. V. Marenich,  
 T. Markovich,  L. A. Martinez-Martinez,  S. A. Maurer,  N. J. Mayhall,  
 S. C. McKenzie,  J.-M. Mewes,  A. F. Morrison,  J. W. Mullinax,  K. Nanda,  
 T. S. Nguyen-Beck,  R. Olivares-Amaya,  J. A. Parkhill,  T. M. Perrine,  
 F. Plasser,  P. Pokhilko,  S. Prager,  A. Prociuk,  E. Ramos,  D. R. Rehn,  
 F. Rob,  M. Schneider,  N. Sergueev,  S. M. Sharada,  S. Sharma,  
 D. W. Small,  T. Stauch,  T. Stein,  Yu-Chuan Su,  A. J. W. Thom,  
 A. Tkatchenko,  T. Tsuchimochi,  N. M. Tubman,  L. Vogt,  M. L. Vidal,  
 O. Vydrov,  M. A. Watson,  J. Wenzel,  M. de Wergifosse,  T. A. Wesolowski,  
 A. White,  J. Witte,  A. Yamada,  Jun Yang,  K. Yao,  S. Yeganeh,  
 S. R. Yost,  Zhi-Qiang You,  A. Zech,  Igor Ying Zhang,  Xing Zhang,  
 Yan Zhao,  Ying Zhu,  B. R. Brooks,  G. K. L. Chan,  C. J. Cramer,  
 M. S. Gordon,  W. J. Hehre,  A. Klamt,  M. W. Schmidt,  C. D. Sherrill,  
 D. G. Truhlar,  A. Aspuru-Guzik,  R. Baer,  A. T. Bell,  N. A. Besley,  
 Jeng-Da Chai,  R. A. DiStasio Jr.,  A. Dreuw,  B. D. Dunietz,  
 T. R. Furlani,  Chao-Ping Hsu,  Yousung Jung,  Jing Kong,  D. S. Lambrecht,  
 WanZhen Liang,  C. Ochsenfeld,  V. A. Rassolov,  L. V. Slipchenko,  
 J. E. Subotnik,  T. Van Voorhis,  J. M. Herbert,  A. I. Krylov,  
 P. M. W. Gill,  M. Head-Gordon

 Contributors to earlier versions of Q-Chem not listed above: 
 R. D. Adamson,  B. Austin,  J. Baker,  G. J. O. Beran,  K. Brandhorst,  
 S. T. Brown,  E. F. C. Byrd,  A. K. Chakraborty,  C.-L. Cheng,  
 Siu Hung Chien,  D. M. Chipman,  D. L. Crittenden,  H. Dachsel,  
 R. J. Doerksen,  A. D. Dutoi,  L. Fusti-Molnar,  W. A. Goddard III,  
 A. Golubeva-Zadorozhnaya,  S. R. Gwaltney,  G. Hawkins,  A. Heyden,  
 S. Hirata,  G. Kedziora,  F. J. Keil,  C. Kelley,  Jihan Kim,  R. A. King,  
 R. Z. Khaliullin,  P. P. Korambath,  W. Kurlancheek,  A. M. Lee,  M. S. Lee,  
 S. V. Levchenko,  Ching Yeh Lin,  D. Liotard,  R. C. Lochan,  I. Lotan,  
 P. E. Maslen,  N. Nair,  D. P. O'Neill,  D. Neuhauser,  E. Neuscamman,  
 C. M. Oana,  R. Olson,  B. Peters,  R. Peverati,  P. A. Pieniazek,  
 Y. M. Rhee,  J. Ritchie,  M. A. Rohrdanz,  E. Rosta,  N. J. Russ,  
 H. F. Schaefer III,  N. E. Schultz,  N. Shenvi,  A. C. Simmonett,  A. Sodt,  
 D. Stuck,  K. S. Thanthiriwatte,  V. Vanovschi,  Tao Wang,  A. Warshel,  
 C. F. Williams,  Q. Wu,  X. Xu,  W. Zhang

 Please cite Q-Chem as follows:
 Y. Shao et al., Mol. Phys. 113, 184-215 (2015)
 DOI: 10.1080/00268976.2014.952696

 Q-Chem 5.1.0 for Intel X86 EM64T Linux

 Parts of Q-Chem use Armadillo 8.300.2 (Tropical Shenanigans).
 http://arma.sourceforge.net/

 Q-Chem begins on Wed Oct 24 17:10:09 2018  

Host: 
0

     Scratch files written to /work1/malop/qc_7370252.hnode2//

Checking the input file for inconsistencies... 	...done.

--------------------------------------------------------------
User input:
--------------------------------------------------------------
$commen
RI-MP2/cc-pVTZ optimized geometry. 
TR-NEXAFS
basis = 6-311(2+,+)G** (ucC)
$end

$molecule
0 1
H       2.4750347531     0.0000000000    -0.0000000000
C       1.3935929418     0.0000000000    -0.0000000000
C       0.6967964709     1.2068868901     0.0000000000
H       1.2375173766     2.1434429715     0.0000000000
C      -0.6967964709     1.2068868901     0.0000000000
H      -1.2375173766     2.1434429715     0.0000000000
C      -1.3935929418    -0.0000000000     0.0000000000
H      -2.4750347531    -0.0000000000     0.0000000000
C      -0.6967964709    -1.2068868901    -0.0000000000
H      -1.2375173766    -2.1434429715    -0.0000000000
C       0.6967964709    -1.2068868901    -0.0000000000
H       1.2375173766    -2.1434429715    -0.0000000000
$end

$rem
   JOB_TYPE  =  SP
   BASIS  =  general
   METHOD  =  EOM-CCSD
   !CVS_EE_STATES = [5,5,5,5,5,5,5,5]
   EE_STATES = [3,3,3,3,3,3,3,3]
   eom_preconv_singles = true
   n_frozen_core = fc
   cc_trans_prop = true
   use_libqints = 1   !use new int library (will be def in trunk)
   cc_memory = 100000
   EOM_DAVIDSON_MAX_ITER 200
   EOM_DAVIDSON_MAXVECTORS = 1000
   eom_davidson_convergence = 5
   !eom_shift = 10000
$end

$basis
H    0
6-311(2+,+)G**
****
C    0
S    1    1.000000
   4.56324000E+03    1.96665000E-03
S    1    1.000000
   6.82024000E+02    1.52306000E-02
S    1    1.000000
   1.54973000E+02    7.61269000E-02
S    1    1.000000
   4.44553000E+01    2.60801000E-01
S    1    1.000000
   1.30290000E+01    6.16462000E-01
S    1    1.000000
   1.82773000E+00    2.21006000E-01
SP   3    1.000000
   2.09642000E+01    1.14660000E-01   4.02487000E-02
   4.80331000E+00    9.19999000E-01   2.37594000E-01
   1.45933000E+00   -3.03068000E-03   8.15854000E-01
SP   1    1.000000
   4.83456000E-01    1.00000000E+00   1.00000000E+00
SP   1    1.000000
   1.45585000E-01    1.00000000E+00   1.00000000E+00
SP   1    1.000000
   4.38000000E-02    1.00000000E+00   1.00000000E+00
SP   1    1.000000
   1.31927711E-02    1.00000000E+00   1.00000000E+00
D    1    1.000000
   6.26000000E-01    1.00000000E+00
****
end

--------------------------------------------------------------
 ----------------------------------------------------------------
             Standard Nuclear Orientation (Angstroms)
    I     Atom           X                Y                Z
 ----------------------------------------------------------------
    1      H       2.4750347531     0.0000000000    -0.0000000000
    2      C       1.3935929418     0.0000000000    -0.0000000000
    3      C       0.6967964709     1.2068868901     0.0000000000
    4      H       1.2375173766     2.1434429715     0.0000000000
    5      C      -0.6967964709     1.2068868901     0.0000000000
    6      H      -1.2375173766     2.1434429715     0.0000000000
    7      C      -1.3935929418    -0.0000000000     0.0000000000
    8      H      -2.4750347531    -0.0000000000     0.0000000000
    9      C      -0.6967964709    -1.2068868901    -0.0000000000
   10      H      -1.2375173766    -2.1434429715    -0.0000000000
   11      C       0.6967964709    -1.2068868901    -0.0000000000
   12      H       1.2375173766    -2.1434429715    -0.0000000000
 ----------------------------------------------------------------
 Molecular Point Group                 D2h   NOp =  8
 Largest Abelian Subgroup              D2h   NOp =  8
 Nuclear Repulsion Energy =   203.7187449024 hartrees
 There are       21 alpha and       21 beta electrons

 Q-Chem warning in module forms1/BasisType.C, line 1685:

 Setting pure/cartesian flag to 2111 for general basis


 Requested basis set is non-standard
 There are 102 shells and 228 basis functions
MEM_TOTAL is adjusted to CC_MEMORY + MEM_STATIC!
 Total memory of 100192MB is distributed as follows: 
   QALLOC including MEM_STATIC uses 192MB
   MEM_STATIC is set to 192MB
   CCMAN JOB total memory use is  100000MB
 Warning: actual memory use might exceed 100192MB

 Total QAlloc Memory Limit    192 MB
 Mega-Array Size       188 MB
 MEM_STATIC part       192 MB

                       Distance Matrix (Angstroms)
             H (  1)   C (  2)   C (  3)   H (  4)   C (  5)   H (  6)
   C (  2)  1.081442
   C (  3)  2.149118  1.393593
   H (  4)  2.475035  2.149118  1.081442
   C (  5)  3.393684  2.413774  1.393593  2.149118
   H (  6)  4.286886  3.393684  2.149118  2.475035  1.081442
   C (  7)  3.868628  2.787186  2.413774  3.393684  1.393593  2.149118
   H (  8)  4.950070  3.868628  3.393684  4.286886  2.149118  2.475035
   C (  9)  3.393684  2.413774  2.787186  3.868628  2.413774  3.393684
   H ( 10)  4.286886  3.393684  3.868628  4.950070  3.393684  4.286886
   C ( 11)  2.149118  1.393593  2.413774  3.393684  2.787186  3.868628
   H ( 12)  2.475035  2.149118  3.393684  4.286886  3.868628  4.950070
             C (  7)   H (  8)   C (  9)   H ( 10)   C ( 11)
   H (  8)  1.081442
   C (  9)  1.393593  2.149118
   H ( 10)  2.149118  2.475035  1.081442
   C ( 11)  2.413774  3.393684  1.393593  2.149118
   H ( 12)  3.393684  4.286886  2.149118  2.475035  1.081442
 
 A cutoff of  1.0D-14 yielded   4632 shell pairs
 There are     25539 function pairs (     26958 Cartesian)
 
 -------------------------------------------------------
 OpenMP Integral Computing Module                       
 Release: version 1.0, May 2013, Q-Chem Inc. Pittsburgh 
 -------------------------------------------------------
 Integral Job Info:
 Integral job number is                      11
 Integral operator is                         1
 short-range coefficients                     0
 long-range coefficients              100000000
 Omega coefficients                           0
 if combine SR and LR in K                    0
 Integral screening is                        0
 Integral computing path is                   2
 max size of driver memory is            800000
 size of driver memory is                593474
 size of scratch memory is              1367512
 max col of scratch BK array               1296
 max len of scratch array in speh3          155
 max len of scratch index in speh4           18
 max int batch size is                      520
 min int batch size is                       52
 fixed nKL is                                52
 max L of basis functions is                  2
 order of int derivative is                   0
 number of shells is                        102
 number of basis is                         234
 number of cartesian basis is               234
 number of contracted shell pairs          4632
 number of primitive shell pairs           6390
 maxK2 (contraction) of shell pair            9
 max number of K2 of shell pair               1
 max number of CS2 of shell pair           1374
 max number of PS2 of shell pair           1374
 mem total for path MDJ                  537338
 -------------------------------------------------------
 Smallest overlap matrix eigenvalue = 9.20E-09
 Linear dependence detected in AO basis
 Number of orthogonalized atomic orbitals = 221
 Maximum deviation from orthogonality = 7.758E-11

 Scale SEOQF with 1.000000e-01/1.000000e-01/1.000000e-01

 Standard Electronic Orientation quadrupole field applied
 Nucleus-field energy     =     0.0000000057 hartrees
 Guess MOs from core Hamiltonian diagonalization

 -----------------------------------------------------------------------
  General SCF calculation program by
  Eric Jon Sundstrom, Paul Horn, Yuezhi Mao, Dmitri Zuev, Alec White,
  David Stuck, Shaama M.S., Shane Yost, Joonho Lee, David Small,
  Daniel Levine, Susi Lehtola, Hugh Burton, Evgeny Epifanovsky
 -----------------------------------------------------------------------
 Hartree-Fock
 A restricted SCF calculation will be
 performed using DIIS
 SCF converges when DIIS error is below 1.0e-08
 ---------------------------------------
  Cycle       Energy         DIIS error
 ---------------------------------------
    1    -184.2228632418      8.63e-02  
    2    -168.0386170215      4.46e-02  
    3    -221.1238641360      3.49e-02  
    4    -229.2582984334      1.38e-02  
    5    -230.5163601049      5.61e-03  
    6    -230.7362611809      1.60e-03  
    7    -230.7555322713      3.98e-04  
    8    -230.7567897872      6.28e-05  
    9    -230.7568463987      7.54e-06  
   10    -230.7568473318      2.77e-06  
   11    -230.7568474115      4.07e-07  
   12    -230.7568474145      9.52e-08  
   13    -230.7568474146      1.97e-08  
   14    -230.7568474146      3.04e-09  Convergence criterion met
 ---------------------------------------
 SCF time:   CPU 168.27s  wall 18.00s 
 SCF   energy in the final basis set =     -230.7568474146


 ------------------------------------------------------------------------------

   CCMAN2: suite of methods based on coupled cluster
           and equation of motion theories.

   Components:
   * libvmm-1.3-trunk
     by Evgeny Epifanovsky, Ilya Kaliman.
   * libtensor-2.5-trunk
     by Evgeny Epifanovsky, Michael Wormit, Dmitry Zuev, Sam Manzer, 
        Ilya Kaliman.
   * libcc-2.5-trunk
     by Evgeny Epifanovsky, Arik Landau, Tomasz Kus, Kirill Khistyaev, 
        Dmitry Zuev, Prashant Manohar, Xintian Feng, Anna Krylov, 
        Matthew Goldey, Alec White, Thomas Jagau, Kaushik Nanda, 
        Anastasia Gunina, Alexander Kunitsa, Joonho Lee.

   CCMAN original authors:
   Anna I. Krylov, C. David Sherrill, Steven R. Gwaltney,
   Edward F. C. Byrd (2000)
   Sergey V. Levchenko, Lyudmila V. Slipchenko, Tao Wang,
   Ana-Maria C. Cristian (2003)
   Piotr A. Pieniazek, C. Melania Oana, Evgeny Epifanovsky (2007)
   Prashant Manohar (2009)

 ------------------------------------------------------------------------------


 Calculation will run on 10 cores with 100000MB of RAM.

 
 Alpha MOs, Restricted
 -- Occupied --                  
-11.239 -11.239 -11.239 -11.237 -11.237 -11.237  -1.153  -1.017
  1 Ag    1 B3u   1 B2u   2 Ag    1 B1g   2 B3u   3 Ag    3 B3u                
 -1.017  -0.826  -0.826  -0.712  -0.645  -0.621  -0.590  -0.590
  2 B2u   4 Ag    2 B1g   5 Ag    4 B3u   3 B2u   5 B3u   4 B2u                
 -0.502  -0.496  -0.496  -0.337  -0.337
  1 B1u   6 Ag    3 B1g   1 B2g   1 B3g                                        
 -- Virtual --                   
  0.017   0.022   0.022   0.033   0.033   0.034   0.044   0.044
  7 Ag    6 B3u   5 B2u   8 Ag    4 B1g   2 B1u   2 B2g   2 B3g                
  0.049   0.054   0.056   0.056   0.057   0.067   0.067   0.069
  7 B3u   6 B2u   3 B1u   1 Au    9 Ag    8 B3u   7 B2u   3 B2g                
  0.070   0.070   0.084   0.093   0.093   0.103   0.103   0.114
 10 Ag    5 B1g  11 Ag    9 B3u   8 B2u  12 Ag    6 B1g   4 B1u                
  0.114   0.131   0.172   0.186   0.186   0.186   0.195   0.204
  2 Au   10 B3u   5 B1u   4 B2g   3 B3g   9 B2u  13 Ag   14 Ag                 
  0.204   0.225   0.225   0.225   0.237   0.239   0.239   0.247
  7 B1g  11 B3u  10 B2u   5 B2g  15 Ag    6 B1u   3 Au   16 Ag                 
  0.247   0.250   0.250   0.255   0.255   0.281   0.289   0.289
  8 B1g  12 B3u  11 B2u  13 B3u  12 B2u  14 B3u  17 Ag    9 B1g                
  0.303   0.338   0.374   0.413   0.426   0.426   0.454   0.454
 10 B1g  18 Ag    6 B2g  15 B3u  16 B3u  13 B2u  19 Ag   11 B1g                
  0.515   0.515   0.522   0.522   0.621   0.623   0.719   0.739
 20 Ag   12 B1g  17 B3u  14 B2u  21 Ag   15 B2u  18 B3u  19 B3u                
  0.739   0.751   0.752   0.758   0.758   0.785   0.785   0.822
 16 B2u   7 B1u  13 B1g  22 Ag   14 B1g   7 B2g   4 B3g  23 Ag                 
  0.836   0.836   0.891   0.896   0.939   0.939   0.960   0.960
  8 B1u   4 Au   20 B3u   8 B2g  21 B3u  17 B2u  24 Ag   15 B1g                
  0.976   1.016   1.016   1.063   1.063   1.108   1.110   1.110
 25 Ag   22 B3u  18 B2u  26 Ag   16 B1g  23 B3u  24 B3u  19 B2u                
  1.131   1.170   1.204   1.204   1.250   1.324   1.324   1.392
 17 B1g   9 B1u  27 Ag   18 B1g   5 B3g   9 B2g   6 B3g  10 B1u                
  1.392   1.475   1.561   1.720   1.789   1.794   1.794   1.829
  5 Au   25 B3u  28 Ag   20 B2u  29 Ag   26 B3u  21 B2u  10 B2g                
  1.848   1.848   1.910   1.910   1.933   1.933   1.993   2.056
 11 B1u   6 Au   19 B1g  30 Ag   22 B2u  27 B3u  12 B1u  11 B2g                
  2.056   2.109   2.109   2.132   2.239   2.239   2.239   2.253
  7 B3g  31 Ag   20 B1g  23 B2u  21 B1g   8 B3g  12 B2g  28 B3u                
  2.253   2.301   2.350   2.350   2.381   2.381   2.642   2.664
 24 B2u  29 B3u  22 B1g  32 Ag   13 B1u   7 Au   13 B2g   8 Au                 
  2.749   2.749   2.768   2.831   2.831   2.941   2.941   2.977
 33 Ag   23 B1g  34 Ag   30 B3u  25 B2u  26 B2u  31 B3u  35 Ag                 
  2.980   3.031   3.031   3.035   3.044   3.044   3.082   3.208
 32 B3u  33 B3u  27 B2u  34 B3u  36 Ag   24 B1g  14 B1u  14 B2g                
  3.208   3.268   3.302   3.302   3.339   3.339   3.487   3.557
  9 B3g  25 B1g  15 B1u   9 Au   37 Ag   26 B1g  15 B2g  28 B2u                
  3.775   3.775   3.912   3.912   3.938   4.074   4.397   4.397
 27 B1g  38 Ag   35 B3u  29 B2u  39 Ag   36 B3u  40 Ag   28 B1g                
  4.485   4.533   4.533   5.134   5.279   5.461   5.461   5.789
 37 B3u  38 B3u  30 B2u  41 Ag   29 B1g  39 B3u  31 B2u  42 Ag                 
  5.789   6.211  20.654  20.721  20.721  20.862  20.862  21.155
 30 B1g  40 B3u  43 Ag   41 B3u  32 B2u  44 Ag   31 B1g  42 B3u                
 80.225  80.296  80.296  80.416  80.416  80.640 322.068 322.132
 45 Ag   43 B3u  33 B2u  46 Ag   32 B1g  44 B3u  47 Ag   45 B3u                
322.132 322.234 322.234 322.4161431.6381431.6941431.6941431.781
 34 B2u  48 Ag   33 B1g  46 B3u  49 Ag   47 B3u  35 B2u  50 Ag                 
*******1431.9338749.8788749.9238749.9238749.9948749.9948750.117
 34 B1g  48 B3u  51 Ag   49 B3u  36 B2u  52 Ag   35 B1g  50 B3u                
 
 Beta MOs, Restricted
 -- Occupied --                  
-11.239 -11.239 -11.239 -11.237 -11.237 -11.237  -1.153  -1.017
  1 Ag    1 B3u   1 B2u   2 Ag    1 B1g   2 B3u   3 Ag    3 B3u                
 -1.017  -0.826  -0.826  -0.712  -0.645  -0.621  -0.590  -0.590
  2 B2u   4 Ag    2 B1g   5 Ag    4 B3u   3 B2u   5 B3u   4 B2u                
 -0.502  -0.496  -0.496  -0.337  -0.337
  1 B1u   6 Ag    3 B1g   1 B2g   1 B3g                                        
 -- Virtual --                   
  0.017   0.022   0.022   0.033   0.033   0.034   0.044   0.044
  7 Ag    6 B3u   5 B2u   8 Ag    4 B1g   2 B1u   2 B2g   2 B3g                
  0.049   0.054   0.056   0.056   0.057   0.067   0.067   0.069
  7 B3u   6 B2u   3 B1u   1 Au    9 Ag    8 B3u   7 B2u   3 B2g                
  0.070   0.070   0.084   0.093   0.093   0.103   0.103   0.114
 10 Ag    5 B1g  11 Ag    9 B3u   8 B2u  12 Ag    6 B1g   4 B1u                
  0.114   0.131   0.172   0.186   0.186   0.186   0.195   0.204
  2 Au   10 B3u   5 B1u   4 B2g   3 B3g   9 B2u  13 Ag   14 Ag                 
  0.204   0.225   0.225   0.225   0.237   0.239   0.239   0.247
  7 B1g  11 B3u  10 B2u   5 B2g  15 Ag    6 B1u   3 Au   16 Ag                 
  0.247   0.250   0.250   0.255   0.255   0.281   0.289   0.289
  8 B1g  12 B3u  11 B2u  13 B3u  12 B2u  14 B3u  17 Ag    9 B1g                
  0.303   0.338   0.374   0.413   0.426   0.426   0.454   0.454
 10 B1g  18 Ag    6 B2g  15 B3u  16 B3u  13 B2u  19 Ag   11 B1g                
  0.515   0.515   0.522   0.522   0.621   0.623   0.719   0.739
 20 Ag   12 B1g  17 B3u  14 B2u  21 Ag   15 B2u  18 B3u  19 B3u                
  0.739   0.751   0.752   0.758   0.758   0.785   0.785   0.822
 16 B2u   7 B1u  13 B1g  22 Ag   14 B1g   7 B2g   4 B3g  23 Ag                 
  0.836   0.836   0.891   0.896   0.939   0.939   0.960   0.960
  8 B1u   4 Au   20 B3u   8 B2g  21 B3u  17 B2u  24 Ag   15 B1g                
  0.976   1.016   1.016   1.063   1.063   1.108   1.110   1.110
 25 Ag   22 B3u  18 B2u  26 Ag   16 B1g  23 B3u  24 B3u  19 B2u                
  1.131   1.170   1.204   1.204   1.250   1.324   1.324   1.392
 17 B1g   9 B1u  27 Ag   18 B1g   5 B3g   9 B2g   6 B3g  10 B1u                
  1.392   1.475   1.561   1.720   1.789   1.794   1.794   1.829
  5 Au   25 B3u  28 Ag   20 B2u  29 Ag   26 B3u  21 B2u  10 B2g                
  1.848   1.848   1.910   1.910   1.933   1.933   1.993   2.056
 11 B1u   6 Au   19 B1g  30 Ag   22 B2u  27 B3u  12 B1u  11 B2g                
  2.056   2.109   2.109   2.132   2.239   2.239   2.239   2.253
  7 B3g  31 Ag   20 B1g  23 B2u  21 B1g   8 B3g  12 B2g  28 B3u                
  2.253   2.301   2.350   2.350   2.381   2.381   2.642   2.664
 24 B2u  29 B3u  22 B1g  32 Ag   13 B1u   7 Au   13 B2g   8 Au                 
  2.749   2.749   2.768   2.831   2.831   2.941   2.941   2.977
 33 Ag   23 B1g  34 Ag   30 B3u  25 B2u  26 B2u  31 B3u  35 Ag                 
  2.980   3.031   3.031   3.035   3.044   3.044   3.082   3.208
 32 B3u  33 B3u  27 B2u  34 B3u  36 Ag   24 B1g  14 B1u  14 B2g                
  3.208   3.268   3.302   3.302   3.339   3.339   3.487   3.557
  9 B3g  25 B1g  15 B1u   9 Au   37 Ag   26 B1g  15 B2g  28 B2u                
  3.775   3.775   3.912   3.912   3.938   4.074   4.397   4.397
 27 B1g  38 Ag   35 B3u  29 B2u  39 Ag   36 B3u  40 Ag   28 B1g                
  4.485   4.533   4.533   5.134   5.279   5.461   5.461   5.789
 37 B3u  38 B3u  30 B2u  41 Ag   29 B1g  39 B3u  31 B2u  42 Ag                 
  5.789   6.211  20.654  20.721  20.721  20.862  20.862  21.155
 30 B1g  40 B3u  43 Ag   41 B3u  32 B2u  44 Ag   31 B1g  42 B3u                
 80.225  80.296  80.296  80.416  80.416  80.640 322.068 322.132
 45 Ag   43 B3u  33 B2u  46 Ag   32 B1g  44 B3u  47 Ag   45 B3u                
322.132 322.234 322.234 322.4161431.6381431.6941431.6941431.781
 34 B2u  48 Ag   33 B1g  46 B3u  49 Ag   47 B3u  35 B2u  50 Ag                 
*******1431.9338749.8788749.9238749.9238749.9948749.9948750.117
 34 B1g  48 B3u  51 Ag   49 B3u  36 B2u  52 Ag   35 B1g  50 B3u                

 Occupation and symmetry of molecular orbitals

 Point group: D2h (8 irreducible representations).

                           Ag   B1g  B2g  B3g  Au   B1u  B2u  B3u   All 
 ------------------------------------------------------------------------
 All molecular orbitals:
  - Alpha                  52   35   15   9    9    15   36   50    221 
  - Beta                   52   35   15   9    9    15   36   50    221 
 ------------------------------------------------------------------------
 Alpha orbitals:
  - Frozen occupied        2    1    0    0    0    0    1    2     6   
  - Active occupied        4    2    1    1    0    1    3    3     15  
  - Active virtual         46   32   14   8    9    14   32   45    200 
  - Frozen virtual         0    0    0    0    0    0    0    0     0   
 ------------------------------------------------------------------------
 Beta orbitals:
  - Frozen occupied        2    1    0    0    0    0    1    2     6   
  - Active occupied        4    2    1    1    0    1    3    3     15  
  - Active virtual         46   32   14   8    9    14   32   45    200 
  - Frozen virtual         0    0    0    0    0    0    0    0     0   
 ------------------------------------------------------------------------

 Import integrals:   CPU 0.00 s  wall 0.00 s

 Import integrals:   CPU 446.34 s  wall 51.02 s

 MP2 amplitudes:   CPU 16.42 s  wall 12.26 s

           CCSD T amplitudes will be solved using DIIS.

           Start     Size      MaxIter   EConv     TConv     
           3         7         100       1.00e-06  1.00e-04  
 ------------------------------------------------------------------------------
           Energy (a.u.)   Ediff      Tdiff       Comment
 ------------------------------------------------------------------------------
          -231.59168049                           
     1    -231.59429820   2.62e-03   9.14e-01     
     2    -231.62000322   2.57e-02   1.24e-01     
     3    -231.62080522   8.02e-04   4.27e-02     
     4    -231.62331988   2.51e-03   1.33e-02     Switched to DIIS steps.
     5    -231.62422061   9.01e-04   1.12e-02     
     6    -231.62422923   8.61e-06   2.17e-03     
     7    -231.62422004   9.19e-06   6.74e-04     
     8    -231.62421970   3.45e-07   1.55e-04     
     9    -231.62421954   1.57e-07   3.98e-05     
 ------------------------------------------------------------------------------
          -231.62421954                           CCSD T converged.

 SCF energy                 = -230.75684741
 MP2 energy                 = -231.59168049
 CCSD correlation energy     =   -0.86737213
 CCSD total energy           = -231.62421954

 CCSD  T1^2 = 0.0065  T2^2 = 0.3405  Leading amplitudes:

 Amplitude    Orbitals with energies
 -0.0217       1 (B3g) A                 ->    4 (B3g) A                  
              -0.3371                          0.7850                     
 -0.0217       1 (B3g) B                 ->    4 (B3g) B                  
              -0.3371                          0.7850                     
 -0.0217       1 (B2g) A                 ->    7 (B2g) A                  
              -0.3371                          0.7850                     
 -0.0217       1 (B2g) B                 ->    7 (B2g) B                  
              -0.3371                          0.7850                     

 Amplitude    Orbitals with energies
 -0.0672       1 (B2g) A     1 (B2g) B   ->    4 (B1u) A     4 (B1u) B    
              -0.3371       -0.3371            0.1142        0.1142       
  0.0672       1 (B2g) A     1 (B2g) B   ->    4 (B1u) B     4 (B1u) A    
              -0.3371       -0.3371            0.1142        0.1142       
  0.0672       1 (B2g) B     1 (B2g) A   ->    4 (B1u) A     4 (B1u) B    
              -0.3371       -0.3371            0.1142        0.1142       
 -0.0672       1 (B2g) B     1 (B2g) A   ->    4 (B1u) B     4 (B1u) A    
              -0.3371       -0.3371            0.1142        0.1142       
 -0.0672       1 (B3g) A     1 (B3g) B   ->    2 (Au) A      2 (Au) B     
              -0.3371       -0.3371            0.1142        0.1142       
  0.0672       1 (B3g) A     1 (B3g) B   ->    2 (Au) B      2 (Au) A     
              -0.3371       -0.3371            0.1142        0.1142       
  0.0672       1 (B3g) B     1 (B3g) A   ->    2 (Au) A      2 (Au) B     
              -0.3371       -0.3371            0.1142        0.1142       
 -0.0672       1 (B3g) B     1 (B3g) A   ->    2 (Au) B      2 (Au) A     
              -0.3371       -0.3371            0.1142        0.1142       

 Computing CCSD intermediates for later calculations
 Finished.

           CCSD Lambda amplitudes will be solved using DIIS.
           Start     Size      MaxIter   EConv     LConv     
           3         7         100       1.00e-06  1.00e-04  
 ------------------------------------------------------------------------------
            Enorm      Ldiff       Comment
 ------------------------------------------------------------------------------
     1     5.34e-02   4.37e-02     
     2     8.85e-03   5.93e-04     
     3     3.02e-03   1.80e-03     
     4     1.12e-03   2.47e-04     Switched to DIIS steps.
     5     3.20e-04   3.08e-04     
     6     1.00e-04   6.30e-05     
     7     3.17e-05   1.73e-05     
     8     8.54e-06   4.74e-06     
     9     2.67e-06   8.93e-07     
    10     9.05e-07   2.19e-07     
 ------------------------------------------------------------------------------
                                   CCSD Lambda converged.

 CCSD calculation:   CPU 1146.77 s  wall 188.56 s

        Solving for EOMEE-CCSD Ag singlet states.

       EOMEE-CCSD-SINGLES right amplitudes will be solved using Davidson.
        Amplitudes will be solved using standard  algorithm.
     Hard-coded thresholds: 
     LinDepThresh=1.00e-15  NormThresh=1.00e-06  ReorthogonThresh=1.00e-02

      Roots     MaxVec    MaxIter   Precond   Conv      Shift    
      3         1000      200       1         1.00e-05  0.00e+00  
 ------------------------------------------------------------------------------
      Iter ConvRoots NVecs ResNorm Current eigenvalues (eV)
 ------------------------------------------------------------------------------
      0    0      3     4.20e-04   10.1355   10.1564   11.2725   
      1    0      6     6.81e-03   10.0982   10.1046   11.2530   
      2    0      9     4.53e-04   10.0047   10.0342   11.2407   
      3    0      12    9.06e-05   9.9987   10.0309   11.2395   
      4    1      15    1.13e-05   9.9984   10.0307*  11.2392   
      5    3      17    2.89e-06   9.9984*  10.0307*  11.2392*  

     Davidson procedure converged

 EOMEE transition 1/Ag
 Total energy = -231.25678429 a.u.  Excitation energy = 9.9984 eV.
 R1^2 = 1.0000  Res^2 = 3.64e-06
 Conv-d = yes

 Amplitude    Transitions between orbitals
 -0.4861       1 (B3g) A                 ->    2 (B3g) A                  
 -0.4861       1 (B3g) B                 ->    2 (B3g) B                  
 -0.4861       1 (B2g) A                 ->    2 (B2g) A                  
 -0.4861       1 (B2g) B                 ->    2 (B2g) B                  
 -0.1014       1 (B3g) A                 ->    3 (B3g) A                  
 -0.1014       1 (B3g) B                 ->    3 (B3g) B                  
 -0.1014       1 (B2g) A                 ->    4 (B2g) A                  
 -0.1014       1 (B2g) B                 ->    4 (B2g) B                  

              Summary of significant orbitals:

               Number  Type             Irrep      Energy
               20      Occ  Alpha       1 (B2g)     -0.3371
               21      Occ  Alpha       1 (B3g)     -0.3371
               20      Occ  Beta        1 (B2g)     -0.3371
               21      Occ  Beta        1 (B3g)     -0.3371
               28      Vir  Alpha       2 (B2g)      0.0440
               49      Vir  Alpha       4 (B2g)      0.1857
               29      Vir  Alpha       2 (B3g)      0.0440
               50      Vir  Alpha       3 (B3g)      0.1857
               28      Vir  Beta        2 (B2g)      0.0440
               49      Vir  Beta        4 (B2g)      0.1857
               29      Vir  Beta        2 (B3g)      0.0440
               50      Vir  Beta        3 (B3g)      0.1857


 EOMEE transition 2/Ag
 Total energy = -231.25559744 a.u.  Excitation energy = 10.0307 eV.
 R1^2 = 1.0000  Res^2 = 5.05e-07
 Conv-d = yes

 Amplitude    Transitions between orbitals
  0.4872       1 (B2g) A                 ->    2 (B2g) A                  
  0.4872       1 (B2g) B                 ->    2 (B2g) B                  
 -0.4872       1 (B3g) A                 ->    2 (B3g) A                  
 -0.4872       1 (B3g) B                 ->    2 (B3g) B                  
  0.1067       1 (B2g) A                 ->    4 (B2g) A                  
  0.1067       1 (B2g) B                 ->    4 (B2g) B                  
 -0.1067       1 (B3g) A                 ->    3 (B3g) A                  
 -0.1067       1 (B3g) B                 ->    3 (B3g) B                  

              Summary of significant orbitals:

               Number  Type             Irrep      Energy
               20      Occ  Alpha       1 (B2g)     -0.3371
               21      Occ  Alpha       1 (B3g)     -0.3371
               20      Occ  Beta        1 (B2g)     -0.3371
               21      Occ  Beta        1 (B3g)     -0.3371
               28      Vir  Alpha       2 (B2g)      0.0440
               49      Vir  Alpha       4 (B2g)      0.1857
               29      Vir  Alpha       2 (B3g)      0.0440
               50      Vir  Alpha       3 (B3g)      0.1857
               28      Vir  Beta        2 (B2g)      0.0440
               49      Vir  Beta        4 (B2g)      0.1857
               29      Vir  Beta        2 (B3g)      0.0440
               50      Vir  Beta        3 (B3g)      0.1857


 EOMEE transition 3/Ag
 Total energy = -231.21118657 a.u.  Excitation energy = 11.2392 eV.
 R1^2 = 1.0000  Res^2 = 4.52e-06
 Conv-d = yes

 Amplitude    Transitions between orbitals
 -0.7020       1 (B2g) A                 ->    3 (B2g) A                  
 -0.7020       1 (B2g) B                 ->    3 (B2g) B                  
 -0.0749       1 (B2g) A                 ->    5 (B2g) A                  
 -0.0749       1 (B2g) B                 ->    5 (B2g) B                  

              Summary of significant orbitals:

               Number  Type             Irrep      Energy
               20      Occ  Alpha       1 (B2g)     -0.3371
               20      Occ  Beta        1 (B2g)     -0.3371
               37      Vir  Alpha       3 (B2g)      0.0693
               57      Vir  Alpha       5 (B2g)      0.2254
               37      Vir  Beta        3 (B2g)      0.0693
               57      Vir  Beta        5 (B2g)      0.2254


        EOMEE-CCSD/MP2 right amplitudes will be solved using Davidson.
        Amplitudes will be solved using standard  algorithm.
     Hard-coded thresholds: 
     LinDepThresh=1.00e-15  NormThresh=1.00e-06  ReorthogonThresh=1.00e-02

      Roots     MaxVec    MaxIter   Precond   Conv      Shift    
      3         1000      200       1         1.00e-05  0.00e+00  
 ------------------------------------------------------------------------------
      Iter ConvRoots NVecs ResNorm Current eigenvalues (eV)
 ------------------------------------------------------------------------------
      0    0      3     9.21e-02   9.9984   10.0307   11.2392   
      1    0      6     4.20e+01   8.3657   8.5731   9.8334   
      2    0      9     1.01e+00   7.9036   7.9242   9.1610   
      3    0      12    4.17e-02   7.8708   7.8817   9.1222   
      4    0      15    1.29e-03   7.8665   7.8771   9.1191   
      5    0      18    4.59e-03   7.8652   7.8761   9.1181   
      6    0      21    3.12e-03   7.8649   7.8758   9.1163   
      7    1      24    2.01e-04   7.8650   7.8759*  9.1137   
      8    1      26    3.33e-03   7.8649   7.8759*  9.1120   
      9    1      28    2.17e-03   7.8648   7.8759*  9.1070   
      10   2      30    2.84e-05   7.8649*  7.8759*  9.1057   
      11   2      31    3.07e-04   7.8649*  7.8759*  9.1045   
      12   2      32    3.17e-05   7.8649*  7.8759*  9.1039   
      13   2      33    8.89e-06   7.8649*  7.8759*  9.1039   
      14   3      34    3.98e-06   7.8649*  7.8759*  9.1039*  

     Davidson procedure converged

 EOMEE transition 1/Ag
 Total energy = -231.33519144 a.u.  Excitation energy = 7.8649 eV.
 R0^2 = 0.0000  R1^2 = 0.9388  R2^2 = 0.0612  Res^2 = 1.40e-08
 Conv-d = yes

 Amplitude    Transitions between orbitals
 -0.4670       1 (B3g) A                 ->    2 (B3g) A                  
 -0.4670       1 (B3g) B                 ->    2 (B3g) B                  
  0.4670       1 (B2g) A                 ->    2 (B2g) A                  
  0.4670       1 (B2g) B                 ->    2 (B2g) B                  
 -0.1250       1 (B3g) A                 ->    3 (B3g) A                  
 -0.1250       1 (B3g) B                 ->    3 (B3g) B                  
  0.1250       1 (B2g) A                 ->    4 (B2g) A                  
  0.1250       1 (B2g) B                 ->    4 (B2g) B                  

              Summary of significant orbitals:

               Number  Type             Irrep      Energy
               20      Occ  Alpha       1 (B2g)     -0.3371
               21      Occ  Alpha       1 (B3g)     -0.3371
               20      Occ  Beta        1 (B2g)     -0.3371
               21      Occ  Beta        1 (B3g)     -0.3371
               28      Vir  Alpha       2 (B2g)      0.0440
               49      Vir  Alpha       4 (B2g)      0.1857
               29      Vir  Alpha       2 (B3g)      0.0440
               50      Vir  Alpha       3 (B3g)      0.1857
               28      Vir  Beta        2 (B2g)      0.0440
               49      Vir  Beta        4 (B2g)      0.1857
               29      Vir  Beta        2 (B3g)      0.0440
               50      Vir  Beta        3 (B3g)      0.1857


 EOMEE transition 2/Ag
 Total energy = -231.33478685 a.u.  Excitation energy = 7.8759 eV.
 R0^2 = 0.0002  R1^2 = 0.9400  R2^2 = 0.0600  Res^2 = 2.89e-06
 Conv-d = yes

 Amplitude    Transitions between orbitals
 -0.4706       1 (B3g) A                 ->    2 (B3g) A                  
 -0.4706       1 (B3g) B                 ->    2 (B3g) B                  
 -0.4705       1 (B2g) A                 ->    2 (B2g) A                  
 -0.4705       1 (B2g) B                 ->    2 (B2g) B                  
 -0.1094       1 (B3g) A                 ->    3 (B3g) A                  
 -0.1094       1 (B3g) B                 ->    3 (B3g) B                  
 -0.1094       1 (B2g) A                 ->    4 (B2g) A                  
 -0.1094       1 (B2g) B                 ->    4 (B2g) B                  

              Summary of significant orbitals:

               Number  Type             Irrep      Energy
               20      Occ  Alpha       1 (B2g)     -0.3371
               21      Occ  Alpha       1 (B3g)     -0.3371
               20      Occ  Beta        1 (B2g)     -0.3371
               21      Occ  Beta        1 (B3g)     -0.3371
               28      Vir  Alpha       2 (B2g)      0.0440
               49      Vir  Alpha       4 (B2g)      0.1857
               29      Vir  Alpha       2 (B3g)      0.0440
               50      Vir  Alpha       3 (B3g)      0.1857
               28      Vir  Beta        2 (B2g)      0.0440
               49      Vir  Beta        4 (B2g)      0.1857
               29      Vir  Beta        2 (B3g)      0.0440
               50      Vir  Beta        3 (B3g)      0.1857


 EOMEE transition 3/Ag
 Total energy = -231.28965726 a.u.  Excitation energy = 9.1039 eV.
 R0^2 = 0.0000  R1^2 = 0.9267  R2^2 = 0.0733  Res^2 = 9.05e-06
 Conv-d = yes

 Amplitude    Transitions between orbitals
 -0.6370       1 (B2g) A                 ->    3 (B2g) A                  
 -0.6370       1 (B2g) B                 ->    3 (B2g) B                  
 -0.1750       1 (B1u) A                 ->    4 (B1u) A                  
 -0.1750       1 (B1u) B                 ->    4 (B1u) B                  
 -0.1280       1 (B2g) A                 ->    5 (B2g) A                  
 -0.1280       1 (B2g) B                 ->    5 (B2g) B                  

              Summary of significant orbitals:

               Number  Type             Irrep      Energy
               20      Occ  Alpha       1 (B2g)     -0.3371
               17      Occ  Alpha       1 (B1u)     -0.5022
               20      Occ  Beta        1 (B2g)     -0.3371
               17      Occ  Beta        1 (B1u)     -0.5022
               37      Vir  Alpha       3 (B2g)      0.0693
               57      Vir  Alpha       5 (B2g)      0.2254
               45      Vir  Alpha       4 (B1u)      0.1142
               37      Vir  Beta        3 (B2g)      0.0693
               57      Vir  Beta        5 (B2g)      0.2254
               45      Vir  Beta        4 (B1u)      0.1142


      EOM-CCSD/MP2 left amplitudes will be solved using Davidson.
        Amplitudes will be solved using MOM  algorithm.
     Hard-coded thresholds: 
     LinDepThresh=1.00e-15  NormThresh=1.00e-06  ReorthogonThresh=1.00e-02

      Roots     MaxVec    MaxIter   Precond   Conv      Shift    
      3         1000      200       1         1.00e-05  0.00e+00  
 ------------------------------------------------------------------------------
      Iter ConvRoots NVecs ResNorm Current eigenvalues (eV)
 ------------------------------------------------------------------------------
      0    0      3     3.14e-03   7.8649   7.8759   9.1039   
      1    0      6     1.35e+00   7.8649   7.8759   9.1039   
      2    0      9     7.05e-03   7.8649   7.8758   9.1039   
      3    0      12    5.69e-04   7.8649   7.8758   9.1039   
      4    3      15    4.05e-06   7.8649*  7.8758*  9.1039*  

     Davidson procedure converged

        Solving for EOMEE-CCSD B1g singlet states.

       EOMEE-CCSD-SINGLES right amplitudes will be solved using Davidson.
        Amplitudes will be solved using standard  algorithm.
     Hard-coded thresholds: 
     LinDepThresh=1.00e-15  NormThresh=1.00e-06  ReorthogonThresh=1.00e-02

      Roots     MaxVec    MaxIter   Precond   Conv      Shift    
      3         1000      200       1         1.00e-05  0.00e+00  
 ------------------------------------------------------------------------------
      Iter ConvRoots NVecs ResNorm Current eigenvalues (eV)
 ------------------------------------------------------------------------------
      0    0      3     3.13e-04   10.1564   10.1951   11.2725   
      1    0      6     5.05e-03   10.1046   10.1404   11.2530   
      2    0      9     2.63e-04   10.0342   10.1063   11.2407   
      3    1      12    2.48e-05   10.0309   10.1060*  11.2395   
      4    2      14    9.35e-06   10.0307*  10.1060*  11.2392   
      5    3      15    4.18e-06   10.0307*  10.1060*  11.2392*  

     Davidson procedure converged

 EOMEE transition 1/B1g
 Total energy = -231.25559744 a.u.  Excitation energy = 10.0307 eV.
 R1^2 = 1.0000  Res^2 = 5.05e-07
 Conv-d = yes

 Amplitude    Transitions between orbitals
 -0.4872       1 (B3g) A                 ->    2 (B2g) A                  
 -0.4872       1 (B3g) B                 ->    2 (B2g) B                  
 -0.4872       1 (B2g) A                 ->    2 (B3g) A                  
 -0.4872       1 (B2g) B                 ->    2 (B3g) B                  
 -0.1067       1 (B3g) A                 ->    4 (B2g) A                  
 -0.1067       1 (B3g) B                 ->    4 (B2g) B                  
 -0.1067       1 (B2g) A                 ->    3 (B3g) A                  
 -0.1067       1 (B2g) B                 ->    3 (B3g) B                  

              Summary of significant orbitals:

               Number  Type             Irrep      Energy
               20      Occ  Alpha       1 (B2g)     -0.3371
               21      Occ  Alpha       1 (B3g)     -0.3371
               20      Occ  Beta        1 (B2g)     -0.3371
               21      Occ  Beta        1 (B3g)     -0.3371
               28      Vir  Alpha       2 (B2g)      0.0440
               49      Vir  Alpha       4 (B2g)      0.1857
               29      Vir  Alpha       2 (B3g)      0.0440
               50      Vir  Alpha       3 (B3g)      0.1857
               28      Vir  Beta        2 (B2g)      0.0440
               49      Vir  Beta        4 (B2g)      0.1857
               29      Vir  Beta        2 (B3g)      0.0440
               50      Vir  Beta        3 (B3g)      0.1857


 EOMEE transition 2/B1g
 Total energy = -231.25283225 a.u.  Excitation energy = 10.1060 eV.
 R1^2 = 1.0000  Res^2 = 7.52e-06
 Conv-d = yes

 Amplitude    Transitions between orbitals
  0.4912       1 (B2g) A                 ->    2 (B3g) A                  
  0.4912       1 (B2g) B                 ->    2 (B3g) B                  
 -0.4912       1 (B3g) A                 ->    2 (B2g) A                  
 -0.4912       1 (B3g) B                 ->    2 (B2g) B                  

              Summary of significant orbitals:

               Number  Type             Irrep      Energy
               20      Occ  Alpha       1 (B2g)     -0.3371
               21      Occ  Alpha       1 (B3g)     -0.3371
               20      Occ  Beta        1 (B2g)     -0.3371
               21      Occ  Beta        1 (B3g)     -0.3371
               28      Vir  Alpha       2 (B2g)      0.0440
               29      Vir  Alpha       2 (B3g)      0.0440
               28      Vir  Beta        2 (B2g)      0.0440
               29      Vir  Beta        2 (B3g)      0.0440


 EOMEE transition 3/B1g
 Total energy = -231.21118657 a.u.  Excitation energy = 11.2392 eV.
 R1^2 = 1.0000  Res^2 = 4.52e-06
 Conv-d = yes

 Amplitude    Transitions between orbitals
  0.7020       1 (B3g) A                 ->    3 (B2g) A                  
  0.7020       1 (B3g) B                 ->    3 (B2g) B                  
  0.0749       1 (B3g) A                 ->    5 (B2g) A                  
  0.0749       1 (B3g) B                 ->    5 (B2g) B                  

              Summary of significant orbitals:

               Number  Type             Irrep      Energy
               21      Occ  Alpha       1 (B3g)     -0.3371
               21      Occ  Beta        1 (B3g)     -0.3371
               37      Vir  Alpha       3 (B2g)      0.0693
               57      Vir  Alpha       5 (B2g)      0.2254
               37      Vir  Beta        3 (B2g)      0.0693
               57      Vir  Beta        5 (B2g)      0.2254


        EOMEE-CCSD/MP2 right amplitudes will be solved using Davidson.
        Amplitudes will be solved using standard  algorithm.
     Hard-coded thresholds: 
     LinDepThresh=1.00e-15  NormThresh=1.00e-06  ReorthogonThresh=1.00e-02

      Roots     MaxVec    MaxIter   Precond   Conv      Shift    
      3         1000      200       1         1.00e-05  0.00e+00  
 ------------------------------------------------------------------------------
      Iter ConvRoots NVecs ResNorm Current eigenvalues (eV)
 ------------------------------------------------------------------------------
      0    0      3     9.29e-02   10.0307   10.1060   11.2392   
      1    0      6     5.29e+01   8.3657   8.8010   9.8334   
      2    0      9     9.25e-01   7.9036   7.9621   9.1606   
      3    0      12    3.34e-02   7.8708   7.9135   9.1221   
      4    0      15    1.36e-03   7.8665   7.9090   9.1191   
      5    0      18    4.19e-03   7.8652   7.9079   9.1181   
      6    0      21    3.05e-03   7.8649   7.9077   9.1163   
      7    1      24    2.14e-04   7.8650   7.9078*  9.1137   
      8    1      26    3.38e-03   7.8649   7.9078*  9.1120   
      9    1      28    2.13e-03   7.8648   7.9078*  9.1070   
      10   2      30    2.59e-05   7.8649*  7.9078*  9.1057   
      11   2      31    3.08e-04   7.8649*  7.9078*  9.1046   
      12   2      32    3.02e-05   7.8649*  7.9078*  9.1039   
      13   2      33    8.18e-06   7.8649*  7.9078*  9.1039   
      14   3      34    3.19e-06   7.8649*  7.9078*  9.1039*  

     Davidson procedure converged

 EOMEE transition 1/B1g
 Total energy = -231.33519144 a.u.  Excitation energy = 7.8649 eV.
 R0^2 = 0.0000  R1^2 = 0.9388  R2^2 = 0.0612  Res^2 = 1.30e-08
 Conv-d = yes

 Amplitude    Transitions between orbitals
  0.4670       1 (B3g) A                 ->    2 (B2g) A                  
  0.4670       1 (B3g) B                 ->    2 (B2g) B                  
  0.4670       1 (B2g) A                 ->    2 (B3g) A                  
  0.4670       1 (B2g) B                 ->    2 (B3g) B                  
  0.1250       1 (B3g) A                 ->    4 (B2g) A                  
  0.1250       1 (B3g) B                 ->    4 (B2g) B                  
  0.1250       1 (B2g) A                 ->    3 (B3g) A                  
  0.1250       1 (B2g) B                 ->    3 (B3g) B                  

              Summary of significant orbitals:

               Number  Type             Irrep      Energy
               20      Occ  Alpha       1 (B2g)     -0.3371
               21      Occ  Alpha       1 (B3g)     -0.3371
               20      Occ  Beta        1 (B2g)     -0.3371
               21      Occ  Beta        1 (B3g)     -0.3371
               28      Vir  Alpha       2 (B2g)      0.0440
               49      Vir  Alpha       4 (B2g)      0.1857
               29      Vir  Alpha       2 (B3g)      0.0440
               50      Vir  Alpha       3 (B3g)      0.1857
               28      Vir  Beta        2 (B2g)      0.0440
               49      Vir  Beta        4 (B2g)      0.1857
               29      Vir  Beta        2 (B3g)      0.0440
               50      Vir  Beta        3 (B3g)      0.1857


 EOMEE transition 2/B1g
 Total energy = -231.33361480 a.u.  Excitation energy = 7.9078 eV.
 R0^2 = 0.0000  R1^2 = 0.9380  R2^2 = 0.0620  Res^2 = 5.69e-07
 Conv-d = yes

 Amplitude    Transitions between orbitals
 -0.4695       1 (B3g) A                 ->    2 (B2g) A                  
 -0.4695       1 (B3g) B                 ->    2 (B2g) B                  
  0.4695       1 (B2g) A                 ->    2 (B3g) A                  
  0.4695       1 (B2g) B                 ->    2 (B3g) B                  
 -0.1181       1 (B3g) A                 ->    4 (B2g) A                  
 -0.1181       1 (B3g) B                 ->    4 (B2g) B                  
  0.1181       1 (B2g) A                 ->    3 (B3g) A                  
  0.1181       1 (B2g) B                 ->    3 (B3g) B                  

              Summary of significant orbitals:

               Number  Type             Irrep      Energy
               20      Occ  Alpha       1 (B2g)     -0.3371
               21      Occ  Alpha       1 (B3g)     -0.3371
               20      Occ  Beta        1 (B2g)     -0.3371
               21      Occ  Beta        1 (B3g)     -0.3371
               28      Vir  Alpha       2 (B2g)      0.0440
               49      Vir  Alpha       4 (B2g)      0.1857
               29      Vir  Alpha       2 (B3g)      0.0440
               50      Vir  Alpha       3 (B3g)      0.1857
               28      Vir  Beta        2 (B2g)      0.0440
               49      Vir  Beta        4 (B2g)      0.1857
               29      Vir  Beta        2 (B3g)      0.0440
               50      Vir  Beta        3 (B3g)      0.1857


 EOMEE transition 3/B1g
 Total energy = -231.28965731 a.u.  Excitation energy = 9.1039 eV.
 R0^2 = 0.0000  R1^2 = 0.9267  R2^2 = 0.0733  Res^2 = 8.98e-06
 Conv-d = yes

 Amplitude    Transitions between orbitals
  0.6370       1 (B3g) A                 ->    3 (B2g) A                  
  0.6370       1 (B3g) B                 ->    3 (B2g) B                  
  0.1750       1 (B1u) A                 ->    2 (Au) A                   
  0.1750       1 (B1u) B                 ->    2 (Au) B                   
  0.1280       1 (B3g) A                 ->    5 (B2g) A                  
  0.1280       1 (B3g) B                 ->    5 (B2g) B                  

              Summary of significant orbitals:

               Number  Type             Irrep      Energy
               21      Occ  Alpha       1 (B3g)     -0.3371
               17      Occ  Alpha       1 (B1u)     -0.5022
               21      Occ  Beta        1 (B3g)     -0.3371
               17      Occ  Beta        1 (B1u)     -0.5022
               37      Vir  Alpha       3 (B2g)      0.0693
               57      Vir  Alpha       5 (B2g)      0.2254
               46      Vir  Alpha       2 (Au)      0.1142
               37      Vir  Beta        3 (B2g)      0.0693
               57      Vir  Beta        5 (B2g)      0.2254
               46      Vir  Beta        2 (Au)      0.1142


      EOM-CCSD/MP2 left amplitudes will be solved using Davidson.
        Amplitudes will be solved using MOM  algorithm.
     Hard-coded thresholds: 
     LinDepThresh=1.00e-15  NormThresh=1.00e-06  ReorthogonThresh=1.00e-02

      Roots     MaxVec    MaxIter   Precond   Conv      Shift    
      3         1000      200       1         1.00e-05  0.00e+00  
 ------------------------------------------------------------------------------
      Iter ConvRoots NVecs ResNorm Current eigenvalues (eV)
 ------------------------------------------------------------------------------
      0    0      3     3.16e-03   7.8649   7.9078   9.1039   
      1    0      6     1.77e+00   7.8649   7.9077   9.1039   
      2    0      9     9.54e-03   7.8649   7.9077   9.1039   
      3    0      12    5.67e-04   7.8649   7.9077   9.1039   
      4    2      15    1.04e-05   7.8649*  7.9077   9.1039*  
      5    3      16    3.79e-06   7.8649*  7.9077*  9.1039*  

     Davidson procedure converged

        Solving for EOMEE-CCSD B2g singlet states.

       EOMEE-CCSD-SINGLES right amplitudes will be solved using Davidson.
        Amplitudes will be solved using standard  algorithm.
     Hard-coded thresholds: 
     LinDepThresh=1.00e-15  NormThresh=1.00e-06  ReorthogonThresh=1.00e-02

      Roots     MaxVec    MaxIter   Precond   Conv      Shift    
      3         1000      200       1         1.00e-05  0.00e+00  
 ------------------------------------------------------------------------------
      Iter ConvRoots NVecs ResNorm Current eigenvalues (eV)
 ------------------------------------------------------------------------------
      0    0      3     5.94e-04   9.3495   10.1722   10.1818   
      1    0      6     5.63e-01   9.0535   10.0253   10.0311   
      2    0      9     6.62e-02   8.8055   9.9091   9.9143   
      3    0      12    6.62e-02   8.7841   9.8951   9.9018   
      4    0      15    1.11e-01   8.7786   9.8089   9.9013   
      5    1      18    7.99e-03   8.7781   9.7717   9.9013*  
      6    2      20    2.65e-04   8.7781*  9.7684   9.9013*  
      7    2      21    1.79e-05   8.7781*  9.7683   9.9013*  
      8    3      22    5.13e-06   8.7781*  9.7683*  9.9013*  

     Davidson procedure converged

 EOMEE transition 1/B2g
 Total energy = -231.30163190 a.u.  Excitation energy = 8.7781 eV.
 R1^2 = 1.0000  Res^2 = 3.12e-06
 Conv-d = yes

 Amplitude    Transitions between orbitals
  0.5599       1 (B2g) A                 ->    7 (Ag) A                   
  0.5599       1 (B2g) B                 ->    7 (Ag) B                   
 -0.2944       1 (B2g) A                 ->    9 (Ag) A                   
 -0.2944       1 (B2g) B                 ->    9 (Ag) B                   
  0.2574       1 (B2g) A                 ->    11 (Ag) A                  
  0.2574       1 (B2g) B                 ->    11 (Ag) B                  
  0.1078       1 (B2g) A                 ->    13 (Ag) A                  
  0.1078       1 (B2g) B                 ->    13 (Ag) B                  

              Summary of significant orbitals:

               Number  Type             Irrep      Energy
               20      Occ  Alpha       1 (B2g)     -0.3371
               20      Occ  Beta        1 (B2g)     -0.3371
               22      Vir  Alpha       7 (Ag)      0.0169
               34      Vir  Alpha       9 (Ag)      0.0572
               40      Vir  Alpha      11 (Ag)      0.0843
               52      Vir  Alpha      13 (Ag)      0.1946
               22      Vir  Beta        7 (Ag)      0.0169
               34      Vir  Beta        9 (Ag)      0.0572
               40      Vir  Beta       11 (Ag)      0.0843
               52      Vir  Beta       13 (Ag)      0.1946


 EOMEE transition 2/B2g
 Total energy = -231.26524291 a.u.  Excitation energy = 9.7683 eV.
 R1^2 = 1.0000  Res^2 = 2.34e-06
 Conv-d = yes

 Amplitude    Transitions between orbitals
 -0.5370       1 (B2g) A                 ->    9 (Ag) A                   
 -0.5370       1 (B2g) B                 ->    9 (Ag) B                   
  0.1972       1 (B2g) A                 ->    13 (Ag) A                  
  0.1972       1 (B2g) B                 ->    13 (Ag) B                  
  0.1940       1 (B3g) A                 ->    4 (B1g) A                  
  0.1940       1 (B3g) B                 ->    4 (B1g) B                  
 -0.1940       1 (B2g) A                 ->    8 (Ag) A                   
 -0.1940       1 (B2g) B                 ->    8 (Ag) B                   
 -0.1772       1 (B2g) A                 ->    11 (Ag) A                  
 -0.1772       1 (B2g) B                 ->    11 (Ag) B                  
 -0.1745       1 (B2g) A                 ->    7 (Ag) A                   
 -0.1745       1 (B2g) B                 ->    7 (Ag) B                   

              Summary of significant orbitals:

               Number  Type             Irrep      Energy
               20      Occ  Alpha       1 (B2g)     -0.3371
               21      Occ  Alpha       1 (B3g)     -0.3371
               20      Occ  Beta        1 (B2g)     -0.3371
               21      Occ  Beta        1 (B3g)     -0.3371
               22      Vir  Alpha       7 (Ag)      0.0169
               25      Vir  Alpha       8 (Ag)      0.0335
               34      Vir  Alpha       9 (Ag)      0.0572
               40      Vir  Alpha      11 (Ag)      0.0843
               52      Vir  Alpha      13 (Ag)      0.1946
               26      Vir  Alpha       4 (B1g)      0.0335
               22      Vir  Beta        7 (Ag)      0.0169
               25      Vir  Beta        8 (Ag)      0.0335
               34      Vir  Beta        9 (Ag)      0.0572
               40      Vir  Beta       11 (Ag)      0.0843
               52      Vir  Beta       13 (Ag)      0.1946
               26      Vir  Beta        4 (B1g)      0.0335


 EOMEE transition 3/B2g
 Total energy = -231.26035441 a.u.  Excitation energy = 9.9013 eV.
 R1^2 = 1.0000  Res^2 = 9.92e-06
 Conv-d = yes

 Amplitude    Transitions between orbitals
  0.4472       1 (B3g) A                 ->    4 (B1g) A                  
  0.4472       1 (B3g) B                 ->    4 (B1g) B                  
  0.4472       1 (B2g) A                 ->    8 (Ag) A                   
  0.4472       1 (B2g) B                 ->    8 (Ag) B                   
 -0.1946       1 (B3g) A                 ->    6 (B1g) A                  
 -0.1946       1 (B3g) B                 ->    6 (B1g) B                  
 -0.1946       1 (B2g) A                 ->    12 (Ag) A                  
 -0.1946       1 (B2g) B                 ->    12 (Ag) B                  

              Summary of significant orbitals:

               Number  Type             Irrep      Energy
               20      Occ  Alpha       1 (B2g)     -0.3371
               21      Occ  Alpha       1 (B3g)     -0.3371
               20      Occ  Beta        1 (B2g)     -0.3371
               21      Occ  Beta        1 (B3g)     -0.3371
               25      Vir  Alpha       8 (Ag)      0.0335
               43      Vir  Alpha      12 (Ag)      0.1027
               26      Vir  Alpha       4 (B1g)      0.0335
               44      Vir  Alpha       6 (B1g)      0.1027
               25      Vir  Beta        8 (Ag)      0.0335
               43      Vir  Beta       12 (Ag)      0.1027
               26      Vir  Beta        4 (B1g)      0.0335
               44      Vir  Beta        6 (B1g)      0.1027


        EOMEE-CCSD/MP2 right amplitudes will be solved using Davidson.
        Amplitudes will be solved using standard  algorithm.
     Hard-coded thresholds: 
     LinDepThresh=1.00e-15  NormThresh=1.00e-06  ReorthogonThresh=1.00e-02

      Roots     MaxVec    MaxIter   Precond   Conv      Shift    
      3         1000      200       1         1.00e-05  0.00e+00  
 ------------------------------------------------------------------------------
      Iter ConvRoots NVecs ResNorm Current eigenvalues (eV)
 ------------------------------------------------------------------------------
      0    0      3     1.00e-01   8.7781   9.7683   9.9013   
      1    0      6     6.00e+01   7.3554   8.2581   8.7047   
      2    0      9     8.15e-01   6.5344   7.6279   7.7072   
      3    0      12    1.54e-02   6.4697   7.5786   7.6519   
      4    0      15    1.51e-02   6.4587   7.5723   7.6433   
      5    0      18    1.07e-02   6.4540   7.5702   7.6396   
      6    0      21    2.42e-04   6.4527   7.5694   7.6385   
      7    0      24    5.41e-04   6.4524   7.5693   7.6382   
      8    0      27    2.74e-04   6.4523   7.5692   7.6382   
      9    2      30    1.47e-05   6.4522*  7.5690   7.6380*  
      10   2      31    1.56e-05   6.4522*  7.5690   7.6380*  
      11   2      32    1.46e-05   6.4522*  7.5690   7.6380*  
      12   3      33    2.35e-06   6.4522*  7.5690*  7.6380*  

     Davidson procedure converged

 EOMEE transition 1/B2g
 Total energy = -231.38710552 a.u.  Excitation energy = 6.4522 eV.
 R0^2 = 0.0000  R1^2 = 0.9358  R2^2 = 0.0642  Res^2 = 2.53e-06
 Conv-d = yes

 Amplitude    Transitions between orbitals
 -0.5258       1 (B2g) A                 ->    7 (Ag) A                   
 -0.5258       1 (B2g) B                 ->    7 (Ag) B                   
 -0.3106       1 (B2g) A                 ->    11 (Ag) A                  
 -0.3106       1 (B2g) B                 ->    11 (Ag) B                  
  0.2559       1 (B2g) A                 ->    9 (Ag) A                   
  0.2559       1 (B2g) B                 ->    9 (Ag) B                   
 -0.1084       1 (B2g) A                 ->    15 (Ag) A                  
 -0.1084       1 (B2g) B                 ->    15 (Ag) B                  

              Summary of significant orbitals:

               Number  Type             Irrep      Energy
               20      Occ  Alpha       1 (B2g)     -0.3371
               20      Occ  Beta        1 (B2g)     -0.3371
               22      Vir  Alpha       7 (Ag)      0.0169
               34      Vir  Alpha       9 (Ag)      0.0572
               40      Vir  Alpha      11 (Ag)      0.0843
               58      Vir  Alpha      15 (Ag)      0.2373
               22      Vir  Beta        7 (Ag)      0.0169
               34      Vir  Beta        9 (Ag)      0.0572
               40      Vir  Beta       11 (Ag)      0.0843
               58      Vir  Beta       15 (Ag)      0.2373


 EOMEE transition 2/B2g
 Total energy = -231.34606398 a.u.  Excitation energy = 7.5690 eV.
 R0^2 = 0.0000  R1^2 = 0.9388  R2^2 = 0.0612  Res^2 = 2.77e-06
 Conv-d = yes

 Amplitude    Transitions between orbitals
 -0.5063       1 (B2g) A                 ->    9 (Ag) A                   
 -0.5063       1 (B2g) B                 ->    9 (Ag) B                   
  0.2206       1 (B2g) A                 ->    13 (Ag) A                  
  0.2206       1 (B2g) B                 ->    13 (Ag) B                  
 -0.1932       1 (B2g) A                 ->    11 (Ag) A                  
 -0.1932       1 (B2g) B                 ->    11 (Ag) B                  
 -0.1851       1 (B2g) A                 ->    8 (Ag) A                   
 -0.1851       1 (B2g) B                 ->    8 (Ag) B                   
  0.1851       1 (B3g) A                 ->    4 (B1g) A                  
  0.1851       1 (B3g) B                 ->    4 (B1g) B                  
 -0.1258       1 (B2g) A                 ->    7 (Ag) A                   
 -0.1258       1 (B2g) B                 ->    7 (Ag) B                   
  0.1094       1 (B2g) A                 ->    12 (Ag) A                  
  0.1094       1 (B2g) B                 ->    12 (Ag) B                  
 -0.1094       1 (B3g) A                 ->    6 (B1g) A                  
 -0.1094       1 (B3g) B                 ->    6 (B1g) B                  

              Summary of significant orbitals:

               Number  Type             Irrep      Energy
               20      Occ  Alpha       1 (B2g)     -0.3371
               21      Occ  Alpha       1 (B3g)     -0.3371
               20      Occ  Beta        1 (B2g)     -0.3371
               21      Occ  Beta        1 (B3g)     -0.3371
               22      Vir  Alpha       7 (Ag)      0.0169
               25      Vir  Alpha       8 (Ag)      0.0335
               34      Vir  Alpha       9 (Ag)      0.0572
               40      Vir  Alpha      11 (Ag)      0.0843
               43      Vir  Alpha      12 (Ag)      0.1027
               52      Vir  Alpha      13 (Ag)      0.1946
               26      Vir  Alpha       4 (B1g)      0.0335
               44      Vir  Alpha       6 (B1g)      0.1027
               22      Vir  Beta        7 (Ag)      0.0169
               25      Vir  Beta        8 (Ag)      0.0335
               34      Vir  Beta        9 (Ag)      0.0572
               40      Vir  Beta       11 (Ag)      0.0843
               43      Vir  Beta       12 (Ag)      0.1027
               52      Vir  Beta       13 (Ag)      0.1946
               26      Vir  Beta        4 (B1g)      0.0335
               44      Vir  Beta        6 (B1g)      0.1027


 EOMEE transition 3/B2g
 Total energy = -231.34352688 a.u.  Excitation energy = 7.6380 eV.
 R0^2 = 0.0000  R1^2 = 0.9363  R2^2 = 0.0637  Res^2 = 1.74e-06
 Conv-d = yes

 Amplitude    Transitions between orbitals
  0.4062       1 (B3g) A                 ->    4 (B1g) A                  
  0.4062       1 (B3g) B                 ->    4 (B1g) B                  
  0.4061       1 (B2g) A                 ->    8 (Ag) A                   
  0.4061       1 (B2g) B                 ->    8 (Ag) B                   
 -0.2244       1 (B3g) A                 ->    6 (B1g) A                  
 -0.2244       1 (B3g) B                 ->    6 (B1g) B                  
 -0.2244       1 (B2g) A                 ->    12 (Ag) A                  
 -0.2244       1 (B2g) B                 ->    12 (Ag) B                  
 -0.1025       1 (B3g) A                 ->    5 (B1g) A                  
 -0.1025       1 (B3g) B                 ->    5 (B1g) B                  
  0.1025       1 (B2g) A                 ->    10 (Ag) A                  
  0.1025       1 (B2g) B                 ->    10 (Ag) B                  

              Summary of significant orbitals:

               Number  Type             Irrep      Energy
               20      Occ  Alpha       1 (B2g)     -0.3371
               21      Occ  Alpha       1 (B3g)     -0.3371
               20      Occ  Beta        1 (B2g)     -0.3371
               21      Occ  Beta        1 (B3g)     -0.3371
               25      Vir  Alpha       8 (Ag)      0.0335
               38      Vir  Alpha      10 (Ag)      0.0699
               43      Vir  Alpha      12 (Ag)      0.1027
               26      Vir  Alpha       4 (B1g)      0.0335
               39      Vir  Alpha       5 (B1g)      0.0699
               44      Vir  Alpha       6 (B1g)      0.1027
               25      Vir  Beta        8 (Ag)      0.0335
               38      Vir  Beta       10 (Ag)      0.0699
               43      Vir  Beta       12 (Ag)      0.1027
               26      Vir  Beta        4 (B1g)      0.0335
               39      Vir  Beta        5 (B1g)      0.0699
               44      Vir  Beta        6 (B1g)      0.1027


      EOM-CCSD/MP2 left amplitudes will be solved using Davidson.
        Amplitudes will be solved using MOM  algorithm.
     Hard-coded thresholds: 
     LinDepThresh=1.00e-15  NormThresh=1.00e-06  ReorthogonThresh=1.00e-02

      Roots     MaxVec    MaxIter   Precond   Conv      Shift    
      3         1000      200       1         1.00e-05  0.00e+00  
 ------------------------------------------------------------------------------
      Iter ConvRoots NVecs ResNorm Current eigenvalues (eV)
 ------------------------------------------------------------------------------
      0    0      3     3.08e-03   6.4522   7.5690   7.6380   
      1    0      6     3.27e+00   6.4522   7.5690   7.6380   
      2    0      9     5.69e-04   6.4522   7.5690   7.6380   
      3    0      12    5.62e-04   6.4522   7.5690   7.6380   
      4    3      15    2.35e-06   6.4522*  7.5690*  7.6380*  

     Davidson procedure converged

        Solving for EOMEE-CCSD B3g singlet states.

       EOMEE-CCSD-SINGLES right amplitudes will be solved using Davidson.
        Amplitudes will be solved using standard  algorithm.
     Hard-coded thresholds: 
     LinDepThresh=1.00e-15  NormThresh=1.00e-06  ReorthogonThresh=1.00e-02

      Roots     MaxVec    MaxIter   Precond   Conv      Shift    
      3         1000      200       1         1.00e-05  0.00e+00  
 ------------------------------------------------------------------------------
      Iter ConvRoots NVecs ResNorm Current eigenvalues (eV)
 ------------------------------------------------------------------------------
      0    0      3     5.83e-04   9.3495   10.1818   10.1866   
      1    0      6     5.96e-01   9.0535   10.0215   10.0253   
      2    0      9     6.78e-02   8.8055   9.9117   9.9143   
      3    0      12    6.63e-02   8.7841   9.8951   9.9048   
      4    0      15    1.11e-01   8.7786   9.8089   9.9043   
      5    1      18    7.99e-03   8.7781   9.7717   9.9042*  
      6    2      20    2.64e-04   8.7781*  9.7684   9.9042*  
      7    2      21    1.67e-05   8.7781*  9.7683   9.9042*  
      8    3      22    3.96e-06   8.7781*  9.7683*  9.9042*  

     Davidson procedure converged

 EOMEE transition 1/B3g
 Total energy = -231.30163191 a.u.  Excitation energy = 8.7781 eV.
 R1^2 = 1.0000  Res^2 = 3.12e-06
 Conv-d = yes

 Amplitude    Transitions between orbitals
 -0.5599       1 (B3g) A                 ->    7 (Ag) A                   
 -0.5599       1 (B3g) B                 ->    7 (Ag) B                   
  0.2944       1 (B3g) A                 ->    9 (Ag) A                   
  0.2944       1 (B3g) B                 ->    9 (Ag) B                   
 -0.2574       1 (B3g) A                 ->    11 (Ag) A                  
 -0.2574       1 (B3g) B                 ->    11 (Ag) B                  
 -0.1078       1 (B3g) A                 ->    13 (Ag) A                  
 -0.1078       1 (B3g) B                 ->    13 (Ag) B                  

              Summary of significant orbitals:

               Number  Type             Irrep      Energy
               21      Occ  Alpha       1 (B3g)     -0.3371
               21      Occ  Beta        1 (B3g)     -0.3371
               22      Vir  Alpha       7 (Ag)      0.0169
               34      Vir  Alpha       9 (Ag)      0.0572
               40      Vir  Alpha      11 (Ag)      0.0843
               52      Vir  Alpha      13 (Ag)      0.1946
               22      Vir  Beta        7 (Ag)      0.0169
               34      Vir  Beta        9 (Ag)      0.0572
               40      Vir  Beta       11 (Ag)      0.0843
               52      Vir  Beta       13 (Ag)      0.1946


 EOMEE transition 2/B3g
 Total energy = -231.26524292 a.u.  Excitation energy = 9.7683 eV.
 R1^2 = 1.0000  Res^2 = 2.34e-06
 Conv-d = yes

 Amplitude    Transitions between orbitals
  0.5370       1 (B3g) A                 ->    9 (Ag) A                   
  0.5370       1 (B3g) B                 ->    9 (Ag) B                   
 -0.1972       1 (B3g) A                 ->    13 (Ag) A                  
 -0.1972       1 (B3g) B                 ->    13 (Ag) B                  
 -0.1940       1 (B3g) A                 ->    8 (Ag) A                   
 -0.1940       1 (B3g) B                 ->    8 (Ag) B                   
 -0.1940       1 (B2g) A                 ->    4 (B1g) A                  
 -0.1940       1 (B2g) B                 ->    4 (B1g) B                  
  0.1772       1 (B3g) A                 ->    11 (Ag) A                  
  0.1772       1 (B3g) B                 ->    11 (Ag) B                  
  0.1745       1 (B3g) A                 ->    7 (Ag) A                   
  0.1745       1 (B3g) B                 ->    7 (Ag) B                   

              Summary of significant orbitals:

               Number  Type             Irrep      Energy
               20      Occ  Alpha       1 (B2g)     -0.3371
               21      Occ  Alpha       1 (B3g)     -0.3371
               20      Occ  Beta        1 (B2g)     -0.3371
               21      Occ  Beta        1 (B3g)     -0.3371
               22      Vir  Alpha       7 (Ag)      0.0169
               25      Vir  Alpha       8 (Ag)      0.0335
               34      Vir  Alpha       9 (Ag)      0.0572
               40      Vir  Alpha      11 (Ag)      0.0843
               52      Vir  Alpha      13 (Ag)      0.1946
               26      Vir  Alpha       4 (B1g)      0.0335
               22      Vir  Beta        7 (Ag)      0.0169
               25      Vir  Beta        8 (Ag)      0.0335
               34      Vir  Beta        9 (Ag)      0.0572
               40      Vir  Beta       11 (Ag)      0.0843
               52      Vir  Beta       13 (Ag)      0.1946
               26      Vir  Beta        4 (B1g)      0.0335


 EOMEE transition 3/B3g
 Total energy = -231.26024519 a.u.  Excitation energy = 9.9042 eV.
 R1^2 = 1.0000  Res^2 = 6.43e-06
 Conv-d = yes

 Amplitude    Transitions between orbitals
 -0.4405       1 (B3g) A                 ->    8 (Ag) A                   
 -0.4405       1 (B3g) B                 ->    8 (Ag) B                   
  0.4405       1 (B2g) A                 ->    4 (B1g) A                  
  0.4405       1 (B2g) B                 ->    4 (B1g) B                  
  0.1802       1 (B3g) A                 ->    12 (Ag) A                  
  0.1802       1 (B3g) B                 ->    12 (Ag) B                  
 -0.1802       1 (B2g) A                 ->    6 (B1g) A                  
 -0.1802       1 (B2g) B                 ->    6 (B1g) B                  
 -0.1301       1 (B3g) A                 ->    10 (Ag) A                  
 -0.1301       1 (B3g) B                 ->    10 (Ag) B                  
 -0.1301       1 (B2g) A                 ->    5 (B1g) A                  
 -0.1301       1 (B2g) B                 ->    5 (B1g) B                  

              Summary of significant orbitals:

               Number  Type             Irrep      Energy
               20      Occ  Alpha       1 (B2g)     -0.3371
               21      Occ  Alpha       1 (B3g)     -0.3371
               20      Occ  Beta        1 (B2g)     -0.3371
               21      Occ  Beta        1 (B3g)     -0.3371
               25      Vir  Alpha       8 (Ag)      0.0335
               38      Vir  Alpha      10 (Ag)      0.0699
               43      Vir  Alpha      12 (Ag)      0.1027
               26      Vir  Alpha       4 (B1g)      0.0335
               39      Vir  Alpha       5 (B1g)      0.0699
               44      Vir  Alpha       6 (B1g)      0.1027
               25      Vir  Beta        8 (Ag)      0.0335
               38      Vir  Beta       10 (Ag)      0.0699
               43      Vir  Beta       12 (Ag)      0.1027
               26      Vir  Beta        4 (B1g)      0.0335
               39      Vir  Beta        5 (B1g)      0.0699
               44      Vir  Beta        6 (B1g)      0.1027


        EOMEE-CCSD/MP2 right amplitudes will be solved using Davidson.
        Amplitudes will be solved using standard  algorithm.
     Hard-coded thresholds: 
     LinDepThresh=1.00e-15  NormThresh=1.00e-06  ReorthogonThresh=1.00e-02

      Roots     MaxVec    MaxIter   Precond   Conv      Shift    
      3         1000      200       1         1.00e-05  0.00e+00  
 ------------------------------------------------------------------------------
      Iter ConvRoots NVecs ResNorm Current eigenvalues (eV)
 ------------------------------------------------------------------------------
      0    0      3     1.00e-01   8.7781   9.7683   9.9042   
      1    0      6     5.41e+01   7.3554   8.2581   8.5664   
      2    0      9     8.71e-01   6.5341   7.6277   7.7012   
      3    0      12    1.51e-02   6.4696   7.5785   7.6450   
      4    0      15    1.84e-02   6.4587   7.5723   7.6364   
      5    0      18    1.33e-02   6.4540   7.5702   7.6321   
      6    0      21    3.07e-04   6.4527   7.5694   7.6308   
      7    0      24    5.53e-04   6.4524   7.5693   7.6307   
      8    0      27    2.99e-04   6.4523   7.5692   7.6306   
      9    2      30    1.48e-05   6.4522*  7.5690   7.6305*  
      10   2      31    1.57e-05   6.4522*  7.5690   7.6305*  
      11   2      32    1.46e-05   6.4522*  7.5690   7.6305*  
      12   3      33    2.51e-06   6.4522*  7.5690*  7.6305*  

     Davidson procedure converged

 EOMEE transition 1/B3g
 Total energy = -231.38710555 a.u.  Excitation energy = 6.4522 eV.
 R0^2 = 0.0000  R1^2 = 0.9358  R2^2 = 0.0642  Res^2 = 2.50e-06
 Conv-d = yes

 Amplitude    Transitions between orbitals
  0.5258       1 (B3g) A                 ->    7 (Ag) A                   
  0.5258       1 (B3g) B                 ->    7 (Ag) B                   
  0.3106       1 (B3g) A                 ->    11 (Ag) A                  
  0.3106       1 (B3g) B                 ->    11 (Ag) B                  
 -0.2559       1 (B3g) A                 ->    9 (Ag) A                   
 -0.2559       1 (B3g) B                 ->    9 (Ag) B                   
  0.1084       1 (B3g) A                 ->    15 (Ag) A                  
  0.1084       1 (B3g) B                 ->    15 (Ag) B                  

              Summary of significant orbitals:

               Number  Type             Irrep      Energy
               21      Occ  Alpha       1 (B3g)     -0.3371
               21      Occ  Beta        1 (B3g)     -0.3371
               22      Vir  Alpha       7 (Ag)      0.0169
               34      Vir  Alpha       9 (Ag)      0.0572
               40      Vir  Alpha      11 (Ag)      0.0843
               58      Vir  Alpha      15 (Ag)      0.2373
               22      Vir  Beta        7 (Ag)      0.0169
               34      Vir  Beta        9 (Ag)      0.0572
               40      Vir  Beta       11 (Ag)      0.0843
               58      Vir  Beta       15 (Ag)      0.2373


 EOMEE transition 2/B3g
 Total energy = -231.34606396 a.u.  Excitation energy = 7.5690 eV.
 R0^2 = 0.0000  R1^2 = 0.9388  R2^2 = 0.0612  Res^2 = 2.76e-06
 Conv-d = yes

 Amplitude    Transitions between orbitals
  0.5063       1 (B3g) A                 ->    9 (Ag) A                   
  0.5063       1 (B3g) B                 ->    9 (Ag) B                   
 -0.2206       1 (B3g) A                 ->    13 (Ag) A                  
 -0.2206       1 (B3g) B                 ->    13 (Ag) B                  
  0.1932       1 (B3g) A                 ->    11 (Ag) A                  
  0.1932       1 (B3g) B                 ->    11 (Ag) B                  
 -0.1851       1 (B2g) A                 ->    4 (B1g) A                  
 -0.1851       1 (B2g) B                 ->    4 (B1g) B                  
 -0.1851       1 (B3g) A                 ->    8 (Ag) A                   
 -0.1851       1 (B3g) B                 ->    8 (Ag) B                   
  0.1258       1 (B3g) A                 ->    7 (Ag) A                   
  0.1258       1 (B3g) B                 ->    7 (Ag) B                   
  0.1094       1 (B3g) A                 ->    12 (Ag) A                  
  0.1094       1 (B3g) B                 ->    12 (Ag) B                  
  0.1094       1 (B2g) A                 ->    6 (B1g) A                  
  0.1094       1 (B2g) B                 ->    6 (B1g) B                  

              Summary of significant orbitals:

               Number  Type             Irrep      Energy
               20      Occ  Alpha       1 (B2g)     -0.3371
               21      Occ  Alpha       1 (B3g)     -0.3371
               20      Occ  Beta        1 (B2g)     -0.3371
               21      Occ  Beta        1 (B3g)     -0.3371
               22      Vir  Alpha       7 (Ag)      0.0169
               25      Vir  Alpha       8 (Ag)      0.0335
               34      Vir  Alpha       9 (Ag)      0.0572
               40      Vir  Alpha      11 (Ag)      0.0843
               43      Vir  Alpha      12 (Ag)      0.1027
               52      Vir  Alpha      13 (Ag)      0.1946
               26      Vir  Alpha       4 (B1g)      0.0335
               44      Vir  Alpha       6 (B1g)      0.1027
               22      Vir  Beta        7 (Ag)      0.0169
               25      Vir  Beta        8 (Ag)      0.0335
[...]

 ------------------------------------------------------------------------------
 State A: ccsd: 0/Ag
 State B: eomee_ccsd/rhfref/singlets: 3/B1g
 Transition dipole moment (a.u.):
   A->B: 0.000000 (X 0.000000, Y 0.000000, Z 0.000000)
   B->A: 0.000000 (X 0.000000, Y 0.000000, Z 0.000000)
 Oscillator strength (a.u.): 0.000000
 Norm of one-particle transition density matrix:
   A->B: 0.920660;   B->A: 0.950625
   ||gamma^AB||*||gamma^BA||: 0.875202

 ------------------------------------------------------------------------------
 State A: ccsd: 0/Ag
 State B: eomee_ccsd/rhfref/singlets: 1/B2g
 Transition dipole moment (a.u.):
   A->B: 0.000000 (X 0.000000, Y 0.000000, Z 0.000000)
   B->A: 0.000000 (X 0.000000, Y 0.000000, Z 0.000000)
 Oscillator strength (a.u.): 0.000000
 Norm of one-particle transition density matrix:
   A->B: 0.925126;   B->A: 0.957868
   ||gamma^AB||*||gamma^BA||: 0.886149

 ------------------------------------------------------------------------------
 State A: ccsd: 0/Ag
 State B: eomee_ccsd/rhfref/singlets: 2/B2g
 Transition dipole moment (a.u.):
   A->B: 0.000000 (X 0.000000, Y 0.000000, Z 0.000000)
   B->A: 0.000000 (X 0.000000, Y 0.000000, Z 0.000000)
 Oscillator strength (a.u.): 0.000000
 Norm of one-particle transition density matrix:
   A->B: 0.927396;   B->A: 0.959807
   ||gamma^AB||*||gamma^BA||: 0.890121

 ------------------------------------------------------------------------------
 State A: ccsd: 0/Ag
 State B: eomee_ccsd/rhfref/singlets: 3/B2g
 Transition dipole moment (a.u.):
   A->B: 0.000000 (X 0.000000, Y 0.000000, Z 0.000000)
   B->A: 0.000000 (X 0.000000, Y 0.000000, Z 0.000000)
 Oscillator strength (a.u.): 0.000000
 Norm of one-particle transition density matrix:
   A->B: 0.926094;   B->A: 0.958111
   ||gamma^AB||*||gamma^BA||: 0.887301

 ------------------------------------------------------------------------------
 State A: ccsd: 0/Ag
 State B: eomee_ccsd/rhfref/singlets: 1/B3g
 Transition dipole moment (a.u.):
   A->B: 0.000000 (X 0.000000, Y 0.000000, Z 0.000000)
   B->A: 0.000000 (X 0.000000, Y 0.000000, Z 0.000000)
 Oscillator strength (a.u.): 0.000000
 Norm of one-particle transition density matrix:
   A->B: 0.925126;   B->A: 0.957867
   ||gamma^AB||*||gamma^BA||: 0.886148

 ------------------------------------------------------------------------------
 State A: ccsd: 0/Ag
 State B: eomee_ccsd/rhfref/singlets: 2/B3g
 Transition dipole moment (a.u.):
   A->B: 0.000000 (X 0.000000, Y 0.000000, Z 0.000000)
   B->A: 0.000000 (X 0.000000, Y 0.000000, Z 0.000000)
 Oscillator strength (a.u.): 0.000000
 Norm of one-particle transition density matrix:
   A->B: 0.927396;   B->A: 0.959806
   ||gamma^AB||*||gamma^BA||: 0.890120

 ------------------------------------------------------------------------------
 State A: ccsd: 0/Ag
 State B: eomee_ccsd/rhfref/singlets: 3/B3g
 Transition dipole moment (a.u.):
   A->B: 0.000000 (X 0.000000, Y 0.000000, Z 0.000000)
   B->A: 0.000000 (X 0.000000, Y 0.000000, Z 0.000000)
 Oscillator strength (a.u.): 0.000000
 Norm of one-particle transition density matrix:
   A->B: 0.925987;   B->A: 0.957789
   ||gamma^AB||*||gamma^BA||: 0.886900

 ------------------------------------------------------------------------------
 State A: ccsd: 0/Ag
 State B: eomee_ccsd/rhfref/singlets: 1/Au
 Transition dipole moment (a.u.):
   A->B: 0.000000 (X 0.000000, Y 0.000000, Z 0.000000)
   B->A: 0.000000 (X 0.000000, Y 0.000000, Z 0.000000)
 Oscillator strength (a.u.): 0.000000
 Norm of one-particle transition density matrix:
   A->B: 0.925451;   B->A: 0.957669
   ||gamma^AB||*||gamma^BA||: 0.886276

 ------------------------------------------------------------------------------
 State A: ccsd: 0/Ag
 State B: eomee_ccsd/rhfref/singlets: 2/Au
 Transition dipole moment (a.u.):
   A->B: 0.000000 (X 0.000000, Y 0.000000, Z 0.000000)
   B->A: 0.000000 (X 0.000000, Y 0.000000, Z 0.000000)
 Oscillator strength (a.u.): 0.000000
 Norm of one-particle transition density matrix:
   A->B: 0.923953;   B->A: 0.955219
   ||gamma^AB||*||gamma^BA||: 0.882577

 ------------------------------------------------------------------------------
 State A: ccsd: 0/Ag
 State B: eomee_ccsd/rhfref/singlets: 3/Au
 Transition dipole moment (a.u.):
   A->B: 0.000000 (X 0.000000, Y 0.000000, Z 0.000000)
   B->A: 0.000000 (X 0.000000, Y 0.000000, Z 0.000000)
 Oscillator strength (a.u.): 0.000000
 Norm of one-particle transition density matrix:
   A->B: 0.927902;   B->A: 0.959377
   ||gamma^AB||*||gamma^BA||: 0.890207

 ------------------------------------------------------------------------------
 State A: ccsd: 0/Ag
 State B: eomee_ccsd/rhfref/singlets: 1/B1u
 Transition dipole moment (a.u.):
   A->B: 0.578778 (X 0.000000, Y 0.000000, Z -0.578778)
   B->A: 0.598091 (X 0.000000, Y 0.000000, Z -0.598091)
 Oscillator strength (a.u.): 0.059090
 Norm of one-particle transition density matrix:
   A->B: 0.927522;   B->A: 0.960669
   ||gamma^AB||*||gamma^BA||: 0.891041

 ------------------------------------------------------------------------------
 State A: ccsd: 0/Ag
 State B: eomee_ccsd/rhfref/singlets: 2/B1u
 Transition dipole moment (a.u.):
   A->B: 0.000002 (X 0.000000, Y 0.000000, Z 0.000002)
   B->A: 0.000001 (X 0.000000, Y 0.000000, Z 0.000000)
 Oscillator strength (a.u.): -0.000000
 Norm of one-particle transition density matrix:
   A->B: 0.925451;   B->A: 0.957669
   ||gamma^AB||*||gamma^BA||: 0.886277

 ------------------------------------------------------------------------------
 State A: ccsd: 0/Ag
 State B: eomee_ccsd/rhfref/singlets: 3/B1u
 Transition dipole moment (a.u.):
   A->B: 0.000024 (X 0.000000, Y 0.000000, Z 0.000024)
   B->A: 0.000024 (X 0.000000, Y 0.000000, Z 0.000024)
 Oscillator strength (a.u.): 0.000000
 Norm of one-particle transition density matrix:
   A->B: 0.927902;   B->A: 0.959376
   ||gamma^AB||*||gamma^BA||: 0.890206

 ------------------------------------------------------------------------------
 State A: ccsd: 0/Ag
 State B: eomee_ccsd/rhfref/singlets: 1/B2u
 Transition dipole moment (a.u.):
   A->B: 0.000000 (X 0.000000, Y 0.000000, Z 0.000000)
   B->A: 0.000003 (X 0.000000, Y 0.000003, Z 0.000000)
 Oscillator strength (a.u.): 0.000000
 Norm of one-particle transition density matrix:
   A->B: 0.885863;   B->A: 0.936298
   ||gamma^AB||*||gamma^BA||: 0.829432

 ------------------------------------------------------------------------------
 State A: ccsd: 0/Ag
 State B: eomee_ccsd/rhfref/singlets: 2/B2u
 Transition dipole moment (a.u.):
   A->B: 0.990303 (X 0.000000, Y 0.990303, Z 0.000000)
   B->A: 1.014525 (X 0.000000, Y 1.014525, Z 0.000000)
 Oscillator strength (a.u.): 0.176201
 Norm of one-particle transition density matrix:
   A->B: 0.925519;   B->A: 0.959041
   ||gamma^AB||*||gamma^BA||: 0.887611

 ------------------------------------------------------------------------------
 State A: ccsd: 0/Ag
 State B: eomee_ccsd/rhfref/singlets: 3/B2u
 Transition dipole moment (a.u.):
   A->B: 1.646597 (X 0.000000, Y 1.646597, Z 0.000000)
   B->A: 1.734756 (X 0.000000, Y 1.734756, Z 0.000000)
 Oscillator strength (a.u.): 0.530247
 Norm of one-particle transition density matrix:
   A->B: 0.923095;   B->A: 0.962059
   ||gamma^AB||*||gamma^BA||: 0.888072

 ------------------------------------------------------------------------------
 State A: ccsd: 0/Ag
 State B: eomee_ccsd/rhfref/singlets: 1/B3u
 Transition dipole moment (a.u.):
   A->B: 0.000000 (X 0.000000, Y 0.000000, Z 0.000000)
   B->A: 0.000001 (X 0.000000, Y 0.000000, Z 0.000000)
 Oscillator strength (a.u.): 0.000000
 Norm of one-particle transition density matrix:
   A->B: 0.908450;   B->A: 0.968641
   ||gamma^AB||*||gamma^BA||: 0.879962

 ------------------------------------------------------------------------------
 State A: ccsd: 0/Ag
 State B: eomee_ccsd/rhfref/singlets: 2/B3u
 Transition dipole moment (a.u.):
   A->B: 0.990303 (X -0.990303, Y 0.000000, Z 0.000000)
   B->A: 1.014522 (X -1.014522, Y 0.000000, Z 0.000000)
 Oscillator strength (a.u.): 0.176200
 Norm of one-particle transition density matrix:
   A->B: 0.925519;   B->A: 0.959042
   ||gamma^AB||*||gamma^BA||: 0.887611

 ------------------------------------------------------------------------------
 State A: ccsd: 0/Ag
 State B: eomee_ccsd/rhfref/singlets: 3/B3u
 Transition dipole moment (a.u.):
   A->B: 1.646598 (X -1.646598, Y 0.000000, Z 0.000000)
   B->A: 1.734757 (X -1.734757, Y 0.000000, Z 0.000000)
 Oscillator strength (a.u.): 0.530247
 Norm of one-particle transition density matrix:
   A->B: 0.923095;   B->A: 0.962059
   ||gamma^AB||*||gamma^BA||: 0.888072


 All requested transition properties have been computed

 Transition Properties:   CPU 582.35 s  wall 105.59 s

 Total ccman2 time:   CPU 21934.53 s  wall 3343.59 s

 
 --------------------------------------------------------------
             Orbital Energies (a.u.) and Symmetries
 --------------------------------------------------------------
 
 Alpha MOs, Restricted
 -- Occupied --                  
-11.239 -11.239 -11.239 -11.237 -11.237 -11.237  -1.153  -1.017
  1 Ag    1 B3u   1 B2u   2 Ag    1 B1g   2 B3u   3 Ag    3 B3u                
 -1.017  -0.826  -0.826  -0.712  -0.645  -0.621  -0.590  -0.590
  2 B2u   4 Ag    2 B1g   5 Ag    4 B3u   3 B2u   5 B3u   4 B2u                
 -0.502  -0.496  -0.496  -0.337  -0.337
  1 B1u   6 Ag    3 B1g   1 B2g   1 B3g                                        
 -- Virtual --                   
  0.017   0.022   0.022   0.033   0.033   0.034   0.044   0.044
  7 Ag    6 B3u   5 B2u   8 Ag    4 B1g   2 B1u   2 B2g   2 B3g                
  0.049   0.054   0.056   0.056   0.057   0.067   0.067   0.069
  7 B3u   6 B2u   3 B1u   1 Au    9 Ag    8 B3u   7 B2u   3 B2g                
  0.070   0.070   0.084   0.093   0.093   0.103   0.103   0.114
 10 Ag    5 B1g  11 Ag    9 B3u   8 B2u  12 Ag    6 B1g   4 B1u                
  0.114   0.131   0.172   0.186   0.186   0.186   0.195   0.204
  2 Au   10 B3u   5 B1u   4 B2g   3 B3g   9 B2u  13 Ag   14 Ag                 
  0.204   0.225   0.225   0.225   0.237   0.239   0.239   0.247
  7 B1g  11 B3u  10 B2u   5 B2g  15 Ag    6 B1u   3 Au   16 Ag                 
  0.247   0.250   0.250   0.255   0.255   0.281   0.289   0.289
  8 B1g  12 B3u  11 B2u  13 B3u  12 B2u  14 B3u  17 Ag    9 B1g                
  0.303   0.338   0.374   0.413   0.426   0.426   0.454   0.454
 10 B1g  18 Ag    6 B2g  15 B3u  16 B3u  13 B2u  19 Ag   11 B1g                
  0.515   0.515   0.522   0.522   0.621   0.623   0.719   0.739
 20 Ag   12 B1g  17 B3u  14 B2u  21 Ag   15 B2u  18 B3u  19 B3u                
  0.739   0.751   0.752   0.758   0.758   0.785   0.785   0.822
 16 B2u   7 B1u  13 B1g  22 Ag   14 B1g   7 B2g   4 B3g  23 Ag                 
  0.836   0.836   0.891   0.896   0.939   0.939   0.960   0.960
  8 B1u   4 Au   20 B3u   8 B2g  21 B3u  17 B2u  24 Ag   15 B1g                
  0.976   1.016   1.016   1.063   1.063   1.108   1.110   1.110
 25 Ag   22 B3u  18 B2u  26 Ag   16 B1g  23 B3u  24 B3u  19 B2u                
  1.131   1.170   1.204   1.204   1.250   1.324   1.324   1.392
 17 B1g   9 B1u  27 Ag   18 B1g   5 B3g   9 B2g   6 B3g  10 B1u                
  1.392   1.475   1.561   1.720   1.789   1.794   1.794   1.829
  5 Au   25 B3u  28 Ag   20 B2u  29 Ag   26 B3u  21 B2u  10 B2g                
  1.848   1.848   1.910   1.910   1.933   1.933   1.993   2.056
 11 B1u   6 Au   19 B1g  30 Ag   22 B2u  27 B3u  12 B1u  11 B2g                
  2.056   2.109   2.109   2.132   2.239   2.239   2.239   2.253
  7 B3g  31 Ag   20 B1g  23 B2u  21 B1g   8 B3g  12 B2g  28 B3u                
  2.253   2.301   2.350   2.350   2.381   2.381   2.642   2.664
 24 B2u  29 B3u  22 B1g  32 Ag   13 B1u   7 Au   13 B2g   8 Au                 
  2.749   2.749   2.768   2.831   2.831   2.941   2.941   2.977
 33 Ag   23 B1g  34 Ag   30 B3u  25 B2u  26 B2u  31 B3u  35 Ag                 
  2.980   3.031   3.031   3.035   3.044   3.044   3.082   3.208
 32 B3u  33 B3u  27 B2u  34 B3u  36 Ag   24 B1g  14 B1u  14 B2g                
  3.208   3.268   3.302   3.302   3.339   3.339   3.487   3.557
  9 B3g  25 B1g  15 B1u   9 Au   37 Ag   26 B1g  15 B2g  28 B2u                
  3.775   3.775   3.912   3.912   3.938   4.074   4.397   4.397
 27 B1g  38 Ag   35 B3u  29 B2u  39 Ag   36 B3u  40 Ag   28 B1g                
  4.485   4.533   4.533   5.134   5.279   5.461   5.461   5.789
 37 B3u  38 B3u  30 B2u  41 Ag   29 B1g  39 B3u  31 B2u  42 Ag                 
  5.789   6.211  20.654  20.721  20.721  20.862  20.862  21.155
 30 B1g  40 B3u  43 Ag   41 B3u  32 B2u  44 Ag   31 B1g  42 B3u                
 80.225  80.296  80.296  80.416  80.416  80.640 322.068 322.132
 45 Ag   43 B3u  33 B2u  46 Ag   32 B1g  44 B3u  47 Ag   45 B3u                
322.132 322.234 322.234 322.4161431.6381431.6941431.6941431.781
 34 B2u  48 Ag   33 B1g  46 B3u  49 Ag   47 B3u  35 B2u  50 Ag                 
*******1431.9338749.8788749.9238749.9238749.9948749.9948750.117
 34 B1g  48 B3u  51 Ag   49 B3u  36 B2u  52 Ag   35 B1g  50 B3u                
 
 Beta MOs, Restricted
 -- Occupied --                  
-11.239 -11.239 -11.239 -11.237 -11.237 -11.237  -1.153  -1.017
  1 Ag    1 B3u   1 B2u   2 Ag    1 B1g   2 B3u   3 Ag    3 B3u                
 -1.017  -0.826  -0.826  -0.712  -0.645  -0.621  -0.590  -0.590
  2 B2u   4 Ag    2 B1g   5 Ag    4 B3u   3 B2u   5 B3u   4 B2u                
 -0.502  -0.496  -0.496  -0.337  -0.337
  1 B1u   6 Ag    3 B1g   1 B2g   1 B3g                                        
 -- Virtual --                   
  0.017   0.022   0.022   0.033   0.033   0.034   0.044   0.044
  7 Ag    6 B3u   5 B2u   8 Ag    4 B1g   2 B1u   2 B2g   2 B3g                
  0.049   0.054   0.056   0.056   0.057   0.067   0.067   0.069
  7 B3u   6 B2u   3 B1u   1 Au    9 Ag    8 B3u   7 B2u   3 B2g                
  0.070   0.070   0.084   0.093   0.093   0.103   0.103   0.114
 10 Ag    5 B1g  11 Ag    9 B3u   8 B2u  12 Ag    6 B1g   4 B1u                
  0.114   0.131   0.172   0.186   0.186   0.186   0.195   0.204
  2 Au   10 B3u   5 B1u   4 B2g   3 B3g   9 B2u  13 Ag   14 Ag                 
  0.204   0.225   0.225   0.225   0.237   0.239   0.239   0.247
  7 B1g  11 B3u  10 B2u   5 B2g  15 Ag    6 B1u   3 Au   16 Ag                 
  0.247   0.250   0.250   0.255   0.255   0.281   0.289   0.289
  8 B1g  12 B3u  11 B2u  13 B3u  12 B2u  14 B3u  17 Ag    9 B1g                
  0.303   0.338   0.374   0.413   0.426   0.426   0.454   0.454
 10 B1g  18 Ag    6 B2g  15 B3u  16 B3u  13 B2u  19 Ag   11 B1g                
  0.515   0.515   0.522   0.522   0.621   0.623   0.719   0.739
 20 Ag   12 B1g  17 B3u  14 B2u  21 Ag   15 B2u  18 B3u  19 B3u                
  0.739   0.751   0.752   0.758   0.758   0.785   0.785   0.822
 16 B2u   7 B1u  13 B1g  22 Ag   14 B1g   7 B2g   4 B3g  23 Ag                 
  0.836   0.836   0.891   0.896   0.939   0.939   0.960   0.960
  8 B1u   4 Au   20 B3u   8 B2g  21 B3u  17 B2u  24 Ag   15 B1g                
  0.976   1.016   1.016   1.063   1.063   1.108   1.110   1.110
 25 Ag   22 B3u  18 B2u  26 Ag   16 B1g  23 B3u  24 B3u  19 B2u                
  1.131   1.170   1.204   1.204   1.250   1.324   1.324   1.392
 17 B1g   9 B1u  27 Ag   18 B1g   5 B3g   9 B2g   6 B3g  10 B1u                
  1.392   1.475   1.561   1.720   1.789   1.794   1.794   1.829
  5 Au   25 B3u  28 Ag   20 B2u  29 Ag   26 B3u  21 B2u  10 B2g                
  1.848   1.848   1.910   1.910   1.933   1.933   1.993   2.056
 11 B1u   6 Au   19 B1g  30 Ag   22 B2u  27 B3u  12 B1u  11 B2g                
  2.056   2.109   2.109   2.132   2.239   2.239   2.239   2.253
  7 B3g  31 Ag   20 B1g  23 B2u  21 B1g   8 B3g  12 B2g  28 B3u                
  2.253   2.301   2.350   2.350   2.381   2.381   2.642   2.664
 24 B2u  29 B3u  22 B1g  32 Ag   13 B1u   7 Au   13 B2g   8 Au                 
  2.749   2.749   2.768   2.831   2.831   2.941   2.941   2.977
 33 Ag   23 B1g  34 Ag   30 B3u  25 B2u  26 B2u  31 B3u  35 Ag                 
  2.980   3.031   3.031   3.035   3.044   3.044   3.082   3.208
 32 B3u  33 B3u  27 B2u  34 B3u  36 Ag   24 B1g  14 B1u  14 B2g                
  3.208   3.268   3.302   3.302   3.339   3.339   3.487   3.557
  9 B3g  25 B1g  15 B1u   9 Au   37 Ag   26 B1g  15 B2g  28 B2u                
  3.775   3.775   3.912   3.912   3.938   4.074   4.397   4.397
 27 B1g  38 Ag   35 B3u  29 B2u  39 Ag   36 B3u  40 Ag   28 B1g                
  4.485   4.533   4.533   5.134   5.279   5.461   5.461   5.789
 37 B3u  38 B3u  30 B2u  41 Ag   29 B1g  39 B3u  31 B2u  42 Ag                 
  5.789   6.211  20.654  20.721  20.721  20.862  20.862  21.155
 30 B1g  40 B3u  43 Ag   41 B3u  32 B2u  44 Ag   31 B1g  42 B3u                
 80.225  80.296  80.296  80.416  80.416  80.640 322.068 322.132
 45 Ag   43 B3u  33 B2u  46 Ag   32 B1g  44 B3u  47 Ag   45 B3u                
322.132 322.234 322.234 322.4161431.6381431.6941431.6941431.781
 34 B2u  48 Ag   33 B1g  46 B3u  49 Ag   47 B3u  35 B2u  50 Ag                 
*******1431.9338749.8788749.9238749.9238749.9948749.9948750.117
 34 B1g  48 B3u  51 Ag   49 B3u  36 B2u  52 Ag   35 B1g  50 B3u                
 --------------------------------------------------------------
 
          Ground-State Mulliken Net Atomic Charges

     Atom                 Charge (a.u.)
  ----------------------------------------
      1 H                     0.192118
      2 C                    -0.192118
      3 C                    -0.192118
      4 H                     0.192118
      5 C                    -0.192118
      6 H                     0.192118
      7 C                    -0.192118
      8 H                     0.192118
      9 C                    -0.192118
     10 H                     0.192118
     11 C                    -0.192118
     12 H                     0.192118
  ----------------------------------------
  Sum of atomic charges =    -0.000000

 -----------------------------------------------------------------
                    Cartesian Multipole Moments
 -----------------------------------------------------------------
    Charge (ESU x 10^10)
                -0.0000
    Dipole Moment (Debye)
         X       0.0000      Y       0.0000      Z      -0.0000
       Tot       0.0000
    Quadrupole Moments (Debye-Ang)
        XX     -31.9206     XY       0.0000     YY     -31.9206
        XZ      -0.0000     YZ      -0.0000     ZZ     -41.2888
    Octopole Moments (Debye-Ang^2)
       XXX       0.0000    XXY      -0.0000    XYY      -0.0000
       YYY      -0.0000    XXZ      -0.0000    XYZ      -0.0000
       YYZ      -0.0000    XZZ       0.0000    YZZ       0.0000
       ZZZ      -0.0000
    Hexadecapole Moments (Debye-Ang^3)
      XXXX    -270.4594   XXXY       0.0000   XXYY     -90.1531
      XYYY      -0.0000   YYYY    -270.4594   XXXZ      -0.0000
      XXYZ      -0.0000   XYYZ      -0.0000   YYYZ      -0.0000
      XXZZ     -66.0953   XYZZ      -0.0000   YYZZ     -66.0953
      XZZZ      -0.0000   YZZZ      -0.0000   ZZZZ     -52.3832
 -----------------------------------------------------------------
Archival summary:
1\1\n-62-29-25\SP\ProcedureUnspecified\BasisUnspecified\66\malop\WedOct2418:06:452018WedOct2418:06:452018\0\\#,ProcedureUnspecified,BasisUnspecified,\\0,1\C\H,1,1.08144\C,1,1.39359,2,120\H,3,1.08144,1,120,2,-0,0\C,3,1.39359,1,120,2,180,0\H,5,1.08144,3,120,1,180,0\C,5,1.39359,3,120,1,-0,0\H,7,1.08144,5,120,3,180,0\C,7,1.39359,5,120,3,0,0\H,9,1.08144,7,120,5,180,0\C,9,1.39359,7,120,5,-0,0\H,11,1.08144,9,120,7,-180,0\\HF=-230.756847\\@

 Total job time:  3395.95s(wall), 22142.38s(cpu) 
 Wed Oct 24 18:06:45 2018

        *************************************************************
        *                                                           *
        *  Thank you very much for using Q-Chem.  Have a nice day.  *
        *                                                           *
        *************************************************************


