Jobname.Temp
SP        R                             non-standard        
Number of atoms                            I               12
Charge                                     I                0
Multiplicity                               I                1
Number of electrons                        I               76
Number of alpha electrons                  I               38
Number of beta electrons                   I               38
Atomic numbers                             I   N=          12
           1           6           6           1           6           1
           6           1           6           1           6          35
Current cartesian coordinates              R   N=          36
 -4.05051549E+00  2.95393608E-16 -4.22525073E-01 -2.29274282E+00  1.91826294E-16
 -1.46035457E+00 -2.27717570E+00  2.43803054E-16 -4.09290153E+00 -4.05230117E+00
  3.89933080E-16 -5.10507962E+00  0.00000000E+00  1.09165202E-16 -5.41421201E+00
  0.00000000E+00  1.50346235E-16 -7.45664710E+00  2.27717570E+00 -7.87550564E-17
 -4.09290153E+00  4.05230117E+00 -1.84068570E-16 -5.10507962E+00  2.29274282E+00
 -1.32936874E-16 -1.46035457E+00  4.05051549E+00 -2.78355104E-16 -4.22525073E-01
  2.08166817E-17  3.42882832E-18 -1.70057885E-01  0.00000000E+00 -6.83553696E-17
  3.39018712E+00
Nuclear charges                            R   N=          12
  1.00000000E+00  6.00000000E+00  6.00000000E+00  1.00000000E+00  6.00000000E+00
  1.00000000E+00  6.00000000E+00  1.00000000E+00  6.00000000E+00  1.00000000E+00
  6.00000000E+00  3.50000000E+01
Number of basis functions                  I              284
Number of contracted shells                I              124
Number of primitive shells                 I              155
Highest angular momentum                   I                2
Largest degree of contraction              I                4
Shell types                                I   N=         124
           0           0           0           0           1           0
           0           0           0           0           0          -1
          -1          -1          -1          -1          -2           0
           0           0           0           0           0          -1
          -1          -1          -1          -1          -2           0
           0           0           0           1           0           0
           0           0           0           0          -1          -1
          -1          -1          -1          -2           0           0
           0           0           1           0           0           0
           0           0           0          -1          -1          -1
          -1          -1          -2           0           0           0
           0           1           0           0           0           0
           0           0          -1          -1          -1          -1
          -1          -2           0           0           0           0
           1           0           0           0           0           0
           0          -1          -1          -1          -1          -1
          -2           0           0           0           0           0
           0           0           0           0           0           0
           0           0           1           1           1           1
           1           1           1           1           1          -2
          -2          -1          -1          -2
Number of primitives per shell             I   N=         124
           3           1           1           1           1           1
           1           1           1           1           1           3
           1           1           1           1           1           1
           1           1           1           1           1           3
           1           1           1           1           1           3
           1           1           1           1           1           1
           1           1           1           1           3           1
           1           1           1           1           3           1
           1           1           1           1           1           1
           1           1           1           3           1           1
           1           1           1           3           1           1
           1           1           1           1           1           1
           1           1           3           1           1           1
           1           1           3           1           1           1
           1           1           1           1           1           1
           1           3           1           1           1           1
           1           1           1           1           1           1
           1           3           1           1           1           1
           1           1           1           1           1           3
           3           1           1           1           1           4
           1           1           1           1
Shell to atom map                          I   N=         124
           1           1           1           1           1           2
           2           2           2           2           2           2
           2           2           2           2           2           3
           3           3           3           3           3           3
           3           3           3           3           3           4
           4           4           4           4           5           5
           5           5           5           5           5           5
           5           5           5           5           6           6
           6           6           6           7           7           7
           7           7           7           7           7           7
           7           7           7           8           8           8
           8           8           9           9           9           9
           9           9           9           9           9           9
           9           9          10          10          10          10
          10          11          11          11          11          11
          11          11          11          11          11          11
          11          12          12          12          12          12
          12          12          12          12          12          12
          12          12          12          12          12          12
          12          12          12          12          12          12
          12          12          12          12
Primitive exponents                        R   N=         155
  3.38650000E+01  5.09479000E+00  1.15879000E+00  3.25840000E-01  1.02741000E-01
  3.60000000E-02  7.50000000E-01  4.56324000E+03  6.82024000E+02  1.54973000E+02
  4.44553000E+01  1.30290000E+01  1.82773000E+00  2.09642000E+01  4.80331000E+00
  1.45933000E+00  4.83456000E-01  1.45585000E-01  4.38000000E-02  1.31927711E-02
  6.26000000E-01  4.56324000E+03  6.82024000E+02  1.54973000E+02  4.44553000E+01
  1.30290000E+01  1.82773000E+00  2.09642000E+01  4.80331000E+00  1.45933000E+00
  4.83456000E-01  1.45585000E-01  4.38000000E-02  1.31927711E-02  6.26000000E-01
  3.38650000E+01  5.09479000E+00  1.15879000E+00  3.25840000E-01  1.02741000E-01
  3.60000000E-02  7.50000000E-01  4.56324000E+03  6.82024000E+02  1.54973000E+02
  4.44553000E+01  1.30290000E+01  1.82773000E+00  2.09642000E+01  4.80331000E+00
  1.45933000E+00  4.83456000E-01  1.45585000E-01  4.38000000E-02  1.31927711E-02
  6.26000000E-01  3.38650000E+01  5.09479000E+00  1.15879000E+00  3.25840000E-01
  1.02741000E-01  3.60000000E-02  7.50000000E-01  4.56324000E+03  6.82024000E+02
  1.54973000E+02  4.44553000E+01  1.30290000E+01  1.82773000E+00  2.09642000E+01
  4.80331000E+00  1.45933000E+00  4.83456000E-01  1.45585000E-01  4.38000000E-02
  1.31927711E-02  6.26000000E-01  3.38650000E+01  5.09479000E+00  1.15879000E+00
  3.25840000E-01  1.02741000E-01  3.60000000E-02  7.50000000E-01  4.56324000E+03
  6.82024000E+02  1.54973000E+02  4.44553000E+01  1.30290000E+01  1.82773000E+00
  2.09642000E+01  4.80331000E+00  1.45933000E+00  4.83456000E-01  1.45585000E-01
  4.38000000E-02  1.31927711E-02  6.26000000E-01  3.38650000E+01  5.09479000E+00
  1.15879000E+00  3.25840000E-01  1.02741000E-01  3.60000000E-02  7.50000000E-01
  4.56324000E+03  6.82024000E+02  1.54973000E+02  4.44553000E+01  1.30290000E+01
  1.82773000E+00  2.09642000E+01  4.80331000E+00  1.45933000E+00  4.83456000E-01
  1.45585000E-01  4.38000000E-02  1.31927711E-02  6.26000000E-01  4.39700000E+05
  6.60300000E+04  1.51400000E+04  4.31700000E+03  1.41400000E+03  5.23900000E+02
  5.23900000E+02  2.07700000E+02  8.65400000E+01  3.05200000E+01  1.29800000E+01
  4.41200000E+00  1.86200000E+00  3.93200000E-01  1.40000000E-01  2.95700000E+03
  7.00300000E+02  2.24600000E+02  8.25900000E+01  3.31900000E+01  1.42000000E+01
  1.42000000E+01  7.43800000E+00  3.52600000E+00  1.59500000E+00  8.46200000E-01
  3.18600000E-01  1.09600000E-01  1.34800000E+02  3.63900000E+01  1.21600000E+01
  4.34100000E+00  1.53500000E+00  3.90000000E-02  1.17469880E-02  4.15000000E-01
Contraction coefficients                   R   N=         155
  2.54938145E-02  1.90373109E-01  8.52161486E-01  1.00000000E+00  1.00000000E+00
  1.00000000E+00  1.00000000E+00  1.00000000E+00  1.00000000E+00  1.00000000E+00
  1.00000000E+00  1.00000000E+00  1.00000000E+00  1.14660081E-01  9.19999648E-01
 -3.03068213E-03  1.00000000E+00  1.00000000E+00  1.00000000E+00  1.00000000E+00
  1.00000000E+00  1.00000000E+00  1.00000000E+00  1.00000000E+00  1.00000000E+00
  1.00000000E+00  1.00000000E+00  1.14660081E-01  9.19999648E-01 -3.03068213E-03
  1.00000000E+00  1.00000000E+00  1.00000000E+00  1.00000000E+00  1.00000000E+00
  2.54938145E-02  1.90373109E-01  8.52161486E-01  1.00000000E+00  1.00000000E+00
  1.00000000E+00  1.00000000E+00  1.00000000E+00  1.00000000E+00  1.00000000E+00
  1.00000000E+00  1.00000000E+00  1.00000000E+00  1.14660081E-01  9.19999648E-01
 -3.03068213E-03  1.00000000E+00  1.00000000E+00  1.00000000E+00  1.00000000E+00
  1.00000000E+00  2.54938145E-02  1.90373109E-01  8.52161486E-01  1.00000000E+00
  1.00000000E+00  1.00000000E+00  1.00000000E+00  1.00000000E+00  1.00000000E+00
  1.00000000E+00  1.00000000E+00  1.00000000E+00  1.00000000E+00  1.14660081E-01
  9.19999648E-01 -3.03068213E-03  1.00000000E+00  1.00000000E+00  1.00000000E+00
  1.00000000E+00  1.00000000E+00  2.54938145E-02  1.90373109E-01  8.52161486E-01
  1.00000000E+00  1.00000000E+00  1.00000000E+00  1.00000000E+00  1.00000000E+00
  1.00000000E+00  1.00000000E+00  1.00000000E+00  1.00000000E+00  1.00000000E+00
  1.14660081E-01  9.19999648E-01 -3.03068213E-03  1.00000000E+00  1.00000000E+00
  1.00000000E+00  1.00000000E+00  1.00000000E+00  2.54938145E-02  1.90373109E-01
  8.52161486E-01  1.00000000E+00  1.00000000E+00  1.00000000E+00  1.00000000E+00
  1.00000000E+00  1.00000000E+00  1.00000000E+00  1.00000000E+00  1.00000000E+00
  1.00000000E+00  1.14660081E-01  9.19999648E-01 -3.03068213E-03  1.00000000E+00
  1.00000000E+00  1.00000000E+00  1.00000000E+00  1.00000000E+00  1.00000000E+00
  1.00000000E+00  1.00000000E+00  1.00000000E+00  1.00000000E+00  1.00000000E+00
  1.83107648E-01  6.17625795E-01  2.53810600E-01  1.00000000E+00  1.00000000E+00
  1.00000000E+00  1.00000000E+00  1.00000000E+00  1.00000000E+00  1.00000000E+00
  1.00000000E+00  1.00000000E+00  3.43987390E-01  5.07081411E-01  2.58990506E-01
  7.96539352E-02  3.73418448E-01  6.04929885E-01  1.00000000E+00  1.00000000E+00
  1.00000000E+00  1.00000000E+00  1.83093925E-02  1.34995521E-01  4.26085864E-01
  6.04279951E-01  1.00000000E+00  1.00000000E+00  1.00000000E+00  1.00000000E+00
P(S=P) Contraction coefficients            R   N=         155
  0.00000000E+00  0.00000000E+00  0.00000000E+00  0.00000000E+00  0.00000000E+00
  0.00000000E+00  0.00000000E+00  0.00000000E+00  0.00000000E+00  0.00000000E+00
  0.00000000E+00  0.00000000E+00  0.00000000E+00  4.02486927E-02  2.37593957E-01
  8.15853851E-01  1.00000000E+00  1.00000000E+00  1.00000000E+00  1.00000000E+00
  0.00000000E+00  0.00000000E+00  0.00000000E+00  0.00000000E+00  0.00000000E+00
  0.00000000E+00  0.00000000E+00  4.02486927E-02  2.37593957E-01  8.15853851E-01
  1.00000000E+00  1.00000000E+00  1.00000000E+00  1.00000000E+00  0.00000000E+00
  0.00000000E+00  0.00000000E+00  0.00000000E+00  0.00000000E+00  0.00000000E+00
  0.00000000E+00  0.00000000E+00  0.00000000E+00  0.00000000E+00  0.00000000E+00
  0.00000000E+00  0.00000000E+00  0.00000000E+00  4.02486927E-02  2.37593957E-01
  8.15853851E-01  1.00000000E+00  1.00000000E+00  1.00000000E+00  1.00000000E+00
  0.00000000E+00  0.00000000E+00  0.00000000E+00  0.00000000E+00  0.00000000E+00
  0.00000000E+00  0.00000000E+00  0.00000000E+00  0.00000000E+00  0.00000000E+00
  0.00000000E+00  0.00000000E+00  0.00000000E+00  0.00000000E+00  4.02486927E-02
  2.37593957E-01  8.15853851E-01  1.00000000E+00  1.00000000E+00  1.00000000E+00
  1.00000000E+00  0.00000000E+00  0.00000000E+00  0.00000000E+00  0.00000000E+00
  0.00000000E+00  0.00000000E+00  0.00000000E+00  0.00000000E+00  0.00000000E+00
  0.00000000E+00  0.00000000E+00  0.00000000E+00  0.00000000E+00  0.00000000E+00
  4.02486927E-02  2.37593957E-01  8.15853851E-01  1.00000000E+00  1.00000000E+00
  1.00000000E+00  1.00000000E+00  0.00000000E+00  0.00000000E+00  0.00000000E+00
  0.00000000E+00  0.00000000E+00  0.00000000E+00  0.00000000E+00  0.00000000E+00
  0.00000000E+00  0.00000000E+00  0.00000000E+00  0.00000000E+00  0.00000000E+00
  0.00000000E+00  4.02486927E-02  2.37593957E-01  8.15853851E-01  1.00000000E+00
  1.00000000E+00  1.00000000E+00  1.00000000E+00  0.00000000E+00  0.00000000E+00
  0.00000000E+00  0.00000000E+00  0.00000000E+00  0.00000000E+00  0.00000000E+00
  0.00000000E+00  0.00000000E+00  0.00000000E+00  0.00000000E+00  0.00000000E+00
  0.00000000E+00  0.00000000E+00  0.00000000E+00  0.00000000E+00  0.00000000E+00
  0.00000000E+00  0.00000000E+00  0.00000000E+00  0.00000000E+00  0.00000000E+00
  0.00000000E+00  0.00000000E+00  0.00000000E+00  0.00000000E+00  0.00000000E+00
  0.00000000E+00  0.00000000E+00  0.00000000E+00  0.00000000E+00  0.00000000E+00
  0.00000000E+00  0.00000000E+00  1.00000000E+00  1.00000000E+00  0.00000000E+00
Coordinates of each shell                  R   N=         372
 -4.05051549E+00  2.95393608E-16 -4.22525073E-01 -4.05051549E+00  2.95393608E-16
 -4.22525073E-01 -4.05051549E+00  2.95393608E-16 -4.22525073E-01 -4.05051549E+00
  2.95393608E-16 -4.22525073E-01 -4.05051549E+00  2.95393608E-16 -4.22525073E-01
 -2.29274282E+00  1.91826294E-16 -1.46035457E+00 -2.29274282E+00  1.91826294E-16
 -1.46035457E+00 -2.29274282E+00  1.91826294E-16 -1.46035457E+00 -2.29274282E+00
  1.91826294E-16 -1.46035457E+00 -2.29274282E+00  1.91826294E-16 -1.46035457E+00
 -2.29274282E+00  1.91826294E-16 -1.46035457E+00 -2.29274282E+00  1.91826294E-16
 -1.46035457E+00 -2.29274282E+00  1.91826294E-16 -1.46035457E+00 -2.29274282E+00
  1.91826294E-16 -1.46035457E+00 -2.29274282E+00  1.91826294E-16 -1.46035457E+00
 -2.29274282E+00  1.91826294E-16 -1.46035457E+00 -2.29274282E+00  1.91826294E-16
 -1.46035457E+00 -2.27717570E+00  2.43803054E-16 -4.09290153E+00 -2.27717570E+00
  2.43803054E-16 -4.09290153E+00 -2.27717570E+00  2.43803054E-16 -4.09290153E+00
 -2.27717570E+00  2.43803054E-16 -4.09290153E+00 -2.27717570E+00  2.43803054E-16
 -4.09290153E+00 -2.27717570E+00  2.43803054E-16 -4.09290153E+00 -2.27717570E+00
  2.43803054E-16 -4.09290153E+00 -2.27717570E+00  2.43803054E-16 -4.09290153E+00
 -2.27717570E+00  2.43803054E-16 -4.09290153E+00 -2.27717570E+00  2.43803054E-16
 -4.09290153E+00 -2.27717570E+00  2.43803054E-16 -4.09290153E+00 -2.27717570E+00
  2.43803054E-16 -4.09290153E+00 -4.05230117E+00  3.89933080E-16 -5.10507962E+00
 -4.05230117E+00  3.89933080E-16 -5.10507962E+00 -4.05230117E+00  3.89933080E-16
 -5.10507962E+00 -4.05230117E+00  3.89933080E-16 -5.10507962E+00 -4.05230117E+00
  3.89933080E-16 -5.10507962E+00  0.00000000E+00  1.09165202E-16 -5.41421201E+00
  0.00000000E+00  1.09165202E-16 -5.41421201E+00  0.00000000E+00  1.09165202E-16
 -5.41421201E+00  0.00000000E+00  1.09165202E-16 -5.41421201E+00  0.00000000E+00
  1.09165202E-16 -5.41421201E+00  0.00000000E+00  1.09165202E-16 -5.41421201E+00
  0.00000000E+00  1.09165202E-16 -5.41421201E+00  0.00000000E+00  1.09165202E-16
 -5.41421201E+00  0.00000000E+00  1.09165202E-16 -5.41421201E+00  0.00000000E+00
  1.09165202E-16 -5.41421201E+00  0.00000000E+00  1.09165202E-16 -5.41421201E+00
  0.00000000E+00  1.09165202E-16 -5.41421201E+00  0.00000000E+00  1.50346235E-16
 -7.45664710E+00  0.00000000E+00  1.50346235E-16 -7.45664710E+00  0.00000000E+00
  1.50346235E-16 -7.45664710E+00  0.00000000E+00  1.50346235E-16 -7.45664710E+00
  0.00000000E+00  1.50346235E-16 -7.45664710E+00  2.27717570E+00 -7.87550564E-17
 -4.09290153E+00  2.27717570E+00 -7.87550564E-17 -4.09290153E+00  2.27717570E+00
 -7.87550564E-17 -4.09290153E+00  2.27717570E+00 -7.87550564E-17 -4.09290153E+00
  2.27717570E+00 -7.87550564E-17 -4.09290153E+00  2.27717570E+00 -7.87550564E-17
 -4.09290153E+00  2.27717570E+00 -7.87550564E-17 -4.09290153E+00  2.27717570E+00
 -7.87550564E-17 -4.09290153E+00  2.27717570E+00 -7.87550564E-17 -4.09290153E+00
  2.27717570E+00 -7.87550564E-17 -4.09290153E+00  2.27717570E+00 -7.87550564E-17
 -4.09290153E+00  2.27717570E+00 -7.87550564E-17 -4.09290153E+00  4.05230117E+00
 -1.84068570E-16 -5.10507962E+00  4.05230117E+00 -1.84068570E-16 -5.10507962E+00
  4.05230117E+00 -1.84068570E-16 -5.10507962E+00  4.05230117E+00 -1.84068570E-16
 -5.10507962E+00  4.05230117E+00 -1.84068570E-16 -5.10507962E+00  2.29274282E+00
 -1.32936874E-16 -1.46035457E+00  2.29274282E+00 -1.32936874E-16 -1.46035457E+00
  2.29274282E+00 -1.32936874E-16 -1.46035457E+00  2.29274282E+00 -1.32936874E-16
 -1.46035457E+00  2.29274282E+00 -1.32936874E-16 -1.46035457E+00  2.29274282E+00
 -1.32936874E-16 -1.46035457E+00  2.29274282E+00 -1.32936874E-16 -1.46035457E+00
  2.29274282E+00 -1.32936874E-16 -1.46035457E+00  2.29274282E+00 -1.32936874E-16
 -1.46035457E+00  2.29274282E+00 -1.32936874E-16 -1.46035457E+00  2.29274282E+00
 -1.32936874E-16 -1.46035457E+00  2.29274282E+00 -1.32936874E-16 -1.46035457E+00
  4.05051549E+00 -2.78355104E-16 -4.22525073E-01  4.05051549E+00 -2.78355104E-16
 -4.22525073E-01  4.05051549E+00 -2.78355104E-16 -4.22525073E-01  4.05051549E+00
 -2.78355104E-16 -4.22525073E-01  4.05051549E+00 -2.78355104E-16 -4.22525073E-01
  2.08166817E-17  3.42882832E-18 -1.70057885E-01  2.08166817E-17  3.42882832E-18
 -1.70057885E-01  2.08166817E-17  3.42882832E-18 -1.70057885E-01  2.08166817E-17
  3.42882832E-18 -1.70057885E-01  2.08166817E-17  3.42882832E-18 -1.70057885E-01
  2.08166817E-17  3.42882832E-18 -1.70057885E-01  2.08166817E-17  3.42882832E-18
 -1.70057885E-01  2.08166817E-17  3.42882832E-18 -1.70057885E-01  2.08166817E-17
  3.42882832E-18 -1.70057885E-01  2.08166817E-17  3.42882832E-18 -1.70057885E-01
  2.08166817E-17  3.42882832E-18 -1.70057885E-01  2.08166817E-17  3.42882832E-18
 -1.70057885E-01  0.00000000E+00 -6.83553696E-17  3.39018712E+00  0.00000000E+00
 -6.83553696E-17  3.39018712E+00  0.00000000E+00 -6.83553696E-17  3.39018712E+00
  0.00000000E+00 -6.83553696E-17  3.39018712E+00  0.00000000E+00 -6.83553696E-17
  3.39018712E+00  0.00000000E+00 -6.83553696E-17  3.39018712E+00  0.00000000E+00
 -6.83553696E-17  3.39018712E+00  0.00000000E+00 -6.83553696E-17  3.39018712E+00
  0.00000000E+00 -6.83553696E-17  3.39018712E+00  0.00000000E+00 -6.83553696E-17
  3.39018712E+00  0.00000000E+00 -6.83553696E-17  3.39018712E+00  0.00000000E+00
 -6.83553696E-17  3.39018712E+00  0.00000000E+00 -6.83553696E-17  3.39018712E+00
  0.00000000E+00 -6.83553696E-17  3.39018712E+00  0.00000000E+00 -6.83553696E-17
  3.39018712E+00  0.00000000E+00 -6.83553696E-17  3.39018712E+00  0.00000000E+00
 -6.83553696E-17  3.39018712E+00  0.00000000E+00 -6.83553696E-17  3.39018712E+00
  0.00000000E+00 -6.83553696E-17  3.39018712E+00  0.00000000E+00 -6.83553696E-17
  3.39018712E+00  0.00000000E+00 -6.83553696E-17  3.39018712E+00  0.00000000E+00
 -6.83553696E-17  3.39018712E+00  0.00000000E+00 -6.83553696E-17  3.39018712E+00
  0.00000000E+00 -6.83553696E-17  3.39018712E+00  0.00000000E+00 -6.83553696E-17
  3.39018712E+00  0.00000000E+00 -6.83553696E-17  3.39018712E+00  0.00000000E+00
 -6.83553696E-17  3.39018712E+00
Overlap Matrix                             R   N=       40470
  1.00000000E+00  7.06377220E-01  1.00000000E+00  3.73663963E-01  7.88963228E-01
  1.00000000E+00  1.83765945E-01  4.63180540E-01  8.20866401E-01  1.00000000E+00
  1.26558120E-15  0.00000000E+00  0.00000000E+00  0.00000000E+00  1.00000000E+00
 -6.13602412E-32  7.52339365E-32  0.00000000E+00  0.00000000E+00  0.00000000E+00
  1.00000000E+00  0.00000000E+00  0.00000000E+00 -5.05084368E-17 -2.59941044E-17
  0.00000000E+00  0.00000000E+00  1.00000000E+00  3.88139050E-05  5.65177842E-04
  6.02508164E-04  3.62380773E-04  5.49189657E-04 -3.23580509E-20 -3.24254232E-04
  1.00000000E+00  1.62246960E-04  2.35106805E-03  2.50615850E-03  1.50745399E-03
  2.28602282E-03 -1.34691617E-19 -1.34972056E-03  5.51694548E-01  1.00000000E+00
  5.02451352E-04  7.14202583E-03  7.61075623E-03  4.57927309E-03  6.96202626E-03
 -4.10200005E-19 -4.11054078E-03  2.12826495E-01  6.84700925E-01  1.00000000E+00
  1.36032327E-03  1.82068556E-02  1.93825372E-02  1.16736719E-02  1.78872403E-02
 -1.05390957E-18 -1.05610390E-02  8.64404477E-02  3.31896391E-01  7.59450552E-01
  1.00000000E+00  4.09885896E-03  4.55781355E-02  4.83707586E-02  2.92296393E-02
  4.58202951E-02 -2.69971479E-18 -2.70533584E-02  3.47869195E-02  1.41270397E-01
  3.91244873E-01  7.66208728E-01  1.00000000E+00  4.32834200E-02  1.91670824E-01
  2.00568411E-01  1.24664466E-01  2.03834050E-01 -1.20098267E-17 -1.20348322E-01
  8.00319076E-03  3.31807228E-02  9.94601096E-02  2.43102267E-01  5.32448356E-01
  1.00000000E+00  1.14126559E-02  9.08833752E-02  9.59039617E-02  5.83825888E-02
  9.46629268E-02 -5.57750454E-18 -5.58911740E-02  2.08457869E-02  8.52645086E-02
  2.43163728E-01  5.23196267E-01  8.77408638E-01  8.20129783E-01  1.00000000E+00
 -9.56754571E-02 -1.52966043E-01 -5.72977393E-02 -1.30894198E-02 -2.05352268E-01
  1.77959931E-17  1.78330459E-01  0.00000000E+00  0.00000000E+00  0.00000000E+00
  5.40854917E-16 -1.56942330E-16  3.90722058E-16 -5.90421682E-16  1.00000000E+00
  5.63716246E-18  9.01270252E-18  3.37596155E-18  7.71223762E-19  1.77959931E-17
  9.66861760E-02 -1.05071645E-17 -1.21861749E-34 -4.47283570E-33 -9.86294443E-33
 -2.34658360E-32  3.14047153E-32 -4.81340366E-32  4.15861848E-32 -4.04569172E-47
  1.00000000E+00  5.64889952E-02  9.03146775E-02  3.38299060E-02  7.72829517E-03
  1.78330459E-01 -1.05071645E-17 -8.60423781E-03  1.09763305E-18  0.00000000E+00
  0.00000000E+00  1.05680730E-16  0.00000000E+00  1.95361029E-16 -3.04594525E-16
  3.64403514E-31 -2.09720468E-47  1.00000000E+00  1.92163053E-01  4.31676548E-01
  4.65818948E-01  3.14835886E-01  3.38228091E-01 -1.99282737E-17 -1.99697661E-01
  2.95317180E-03  1.22744305E-02  3.71613597E-02  9.37181699E-02  2.26409467E-01
  7.33659241E-01  4.18799588E-01 -7.03849384E-16  6.69054925E-32 -2.50706410E-16
  1.00000000E+00 -3.38196626E-01 -4.24841211E-01 -1.99566907E-01 -5.33346123E-02
 -2.25973275E-01  2.96195503E-17  2.96812208E-01  0.00000000E+00  0.00000000E+00
  0.00000000E+00  0.00000000E+00  0.00000000E+00  0.00000000E+00  1.50490636E-18
  6.29120213E-01 -4.82579266E-47  2.17334380E-31 -6.17559339E-16  1.00000000E+00
  1.99264198E-17  2.50314866E-17  1.17584082E-17  3.14245558E-18  2.96195503E-17
  2.76737803E-01 -1.74880652E-17  1.01238952E-34 -4.20785030E-34 -1.27394455E-33
  0.00000000E+00  0.00000000E+00  0.00000000E+00 -1.39718626E-32 -4.82579266E-47
  6.29120213E-01 -2.75988707E-47  3.42814299E-32 -2.11708172E-47  1.00000000E+00
  1.99679084E-01  2.50836044E-01  1.17828902E-01  3.14899845E-02  2.96812208E-01
 -1.74880652E-17  1.01493034E-01 -9.11879413E-19 -3.79009461E-18 -1.14746724E-17
  0.00000000E+00  6.99106406E-17  0.00000000E+00  1.25094897E-16  2.17334380E-31
 -2.75988707E-47  6.29120213E-01  0.00000000E+00  0.00000000E+00  0.00000000E+00
  1.00000000E+00  2.69006054E-01  5.84010370E-01  7.60599283E-01  6.31332237E-01
  1.88765124E-01 -1.11219711E-17 -1.11451281E-01  1.20062311E-03  4.99336924E-03
  1.51557958E-02  3.85309672E-02  9.56005441E-02  3.78026174E-01  1.87145450E-01
  3.81073620E-16  5.04384485E-33  0.00000000E+00  7.74696784E-01  0.00000000E+00
 -2.65577135E-32  0.00000000E+00  1.00000000E+00 -3.22895808E-01 -5.41456242E-01
 -4.22112804E-01 -1.67892584E-01  6.94050589E-02  1.24935896E-17  1.25196023E-01
  0.00000000E+00  0.00000000E+00  5.13614502E-18  0.00000000E+00  0.00000000E+00
  1.28109225E-16 -4.47114203E-19  2.20230251E-01  0.00000000E+00  0.00000000E+00
  0.00000000E+00  6.53460872E-01  0.00000000E+00  0.00000000E+00  3.38889827E-16
  1.00000000E+00  1.90249013E-17  3.19024010E-17  2.48707299E-17  9.89216882E-18
  1.24935896E-17  2.81449665E-01 -7.37650326E-18  0.00000000E+00  0.00000000E+00
 -2.85113323E-34  7.24850892E-34 -1.79845316E-33 -1.42229811E-32  3.40018069E-33
  0.00000000E+00  2.20230251E-01  0.00000000E+00 -1.45737233E-32  0.00000000E+00
  6.53460872E-01  0.00000000E+00 -1.88121644E-32 -6.37525115E-48  1.00000000E+00
  1.90645128E-01  3.19688246E-01  2.49225129E-01  9.91276518E-02  1.25196023E-01
 -7.37650326E-18  2.07531047E-01  0.00000000E+00 -8.46101019E-19  0.00000000E+00
 -6.52887641E-18  1.61990259E-17  0.00000000E+00  0.00000000E+00  0.00000000E+00
  0.00000000E+00  2.20230251E-01  0.00000000E+00  0.00000000E+00  0.00000000E+00
  6.53460872E-01  0.00000000E+00  0.00000000E+00  0.00000000E+00  1.00000000E+00
  1.76850259E-01  4.42451012E-01  7.70811667E-01  9.14356752E-01  4.36292168E-02
 -2.57061728E-18 -2.57596953E-02  4.87741086E-04  2.02889232E-03  6.16274865E-03
  1.57060290E-02  3.92899037E-02  1.66260628E-01  7.83157104E-02  3.80791846E-17
  7.36688205E-33  0.00000000E+00  4.10096437E-01 -2.53258885E-16  1.40586923E-32
  0.00000000E+00  7.74407735E-01  0.00000000E+00 -1.45682857E-32  0.00000000E+00
  1.00000000E+00 -1.25646006E-01 -2.86959355E-01 -3.97614923E-01 -3.03490460E-01
  8.82691312E-02  1.78697036E-18  1.79069099E-02  9.06622750E-20  3.77134507E-19
  0.00000000E+00  0.00000000E+00 -7.30328479E-18  0.00000000E+00  1.40801298E-17
  5.73499015E-02 -3.92920915E-49  0.00000000E+00 -7.62295346E-17  2.26365373E-01
 -2.61325745E-48  0.00000000E+00  0.00000000E+00  6.53054566E-01  0.00000000E+00
  0.00000000E+00  0.00000000E+00  1.00000000E+00  7.40301610E-18  1.69075388E-17
  2.34273238E-17  1.78815454E-17  1.78697036E-18  1.18598079E-01 -1.05506849E-18
  0.00000000E+00 -2.09351706E-35 -6.35904593E-35  1.62063010E-34  8.10827493E-34
  0.00000000E+00 -7.87705604E-34 -3.92920915E-49  5.73499015E-02  0.00000000E+00
  4.23158922E-33 -2.61325745E-48  2.26365373E-01  0.00000000E+00 -7.99074346E-33
  0.00000000E+00  6.53054566E-01  0.00000000E+00  0.00000000E+00  0.00000000E+00
  1.00000000E+00  7.41842983E-02  1.69427417E-01  2.34761016E-01  1.79187763E-01
  1.79069099E-02 -1.05506849E-18  1.08025427E-01  0.00000000E+00  0.00000000E+00
  0.00000000E+00 -1.45973382E-18 -3.65164239E-18  0.00000000E+00  0.00000000E+00
  0.00000000E+00  0.00000000E+00  5.73499015E-02  0.00000000E+00  0.00000000E+00
  0.00000000E+00  2.26365373E-01  0.00000000E+00  0.00000000E+00  0.00000000E+00
  6.53054566E-01  0.00000000E+00  0.00000000E+00  0.00000000E+00  1.00000000E+00
  8.42408278E-02  2.28161632E-01  4.82094858E-01  8.01125340E-01  6.63598210E-03
 -3.90989605E-19 -3.91803679E-03  1.98307960E-04  8.24963378E-04  2.50639508E-03
  6.39235755E-03  1.60307708E-02  6.92911373E-02  3.21309381E-02  1.83767883E-18
  0.00000000E+00 -6.89619102E-18  1.82385657E-01  0.00000000E+00  0.00000000E+00
  0.00000000E+00  4.10156818E-01  0.00000000E+00  0.00000000E+00 -6.94989866E-17
  7.74770250E-01  0.00000000E+00  0.00000000E+00  0.00000000E+00  1.00000000E+00
 -3.36543412E-02 -8.85454092E-02 -1.72515071E-01 -2.36734961E-01  3.02348362E-02
  1.55150415E-19  1.55473452E-03  0.00000000E+00  0.00000000E+00  0.00000000E+00
  6.52122657E-19  0.00000000E+00  0.00000000E+00  1.31328488E-19  1.34409213E-02
  0.00000000E+00  9.37363087E-35  0.00000000E+00  5.86567239E-02  0.00000000E+00
  0.00000000E+00  0.00000000E+00  2.26420924E-01  0.00000000E+00  0.00000000E+00
  0.00000000E+00  6.53564158E-01  0.00000000E+00  0.00000000E+00  0.00000000E+00
  1.00000000E+00  1.98290130E-18  5.21706268E-18  1.01645240E-17  1.39483361E-17
  1.55150415E-19  3.28680913E-02 -9.16043816E-20  0.00000000E+00  0.00000000E+00
 -1.41937775E-35 -7.24001588E-35  9.07826528E-35  0.00000000E+00  0.00000000E+00
  0.00000000E+00  1.34409213E-02  0.00000000E+00  0.00000000E+00  0.00000000E+00
  5.86567239E-02  0.00000000E+00  0.00000000E+00  0.00000000E+00  2.26420924E-01
  0.00000000E+00  0.00000000E+00  0.00000000E+00  6.53564158E-01  0.00000000E+00
  0.00000000E+00  0.00000000E+00  1.00000000E+00  1.98702988E-02  5.22792506E-02
  1.01856875E-01  1.39773778E-01  1.55473452E-03 -9.16043816E-20  3.19501402E-02
  0.00000000E+00 -4.20797261E-20  0.00000000E+00  3.26061328E-19  8.17697442E-19
 -3.53440184E-18 -1.52025347E-18  9.37363087E-35  0.00000000E+00  1.34409213E-02
  0.00000000E+00  0.00000000E+00  0.00000000E+00  5.86567239E-02 -2.09212761E-17
  0.00000000E+00  0.00000000E+00  2.26420924E-01  0.00000000E+00  0.00000000E+00
  0.00000000E+00  6.53564158E-01  5.10079929E-17  0.00000000E+00  0.00000000E+00
  1.00000000E+00 -4.67591600E-02 -2.99979159E-02 -5.40355652E-03 -5.30062471E-04
  1.42323319E-01 -8.38563718E-18  2.86273189E-01  0.00000000E+00  0.00000000E+00
  0.00000000E+00  0.00000000E+00  0.00000000E+00  0.00000000E+00  0.00000000E+00
  0.00000000E+00 -1.47831565E-32  0.00000000E+00  0.00000000E+00  0.00000000E+00
  2.20582412E-32  0.00000000E+00  0.00000000E+00  2.19763726E-16  0.00000000E+00