Jobname.Temp
SP        R                             non-standard        
Number of atoms                            I               12
Charge                                     I                0
Multiplicity                               I                1
Number of electrons                        I               58
Number of alpha electrons                  I               29
Number of beta electrons                   I               29
Atomic numbers                             I   N=          12
           1           6           6           1           6           1
           6           1           6           1           6          17
Current cartesian coordinates              R   N=          36
 -4.04407442E+00  5.14530819E-16  7.20855717E-01 -2.29045828E+00  6.60349928E-16
 -3.24667104E-01 -2.27578895E+00  1.98114721E-15 -2.95495188E+00 -4.05104140E+00
  2.87570984E-15 -3.96697807E+00 -4.44089210E-16  2.15229902E-15 -4.27586515E+00
 -4.44089210E-16  3.18042068E-15 -6.31838321E+00  2.27578895E+00  9.93661305E-16
 -2.95495188E+00  4.05104140E+00  1.11792546E-15 -3.96697807E+00  2.29045828E+00
 -3.33501133E-16 -3.24667104E-01  4.04407442E+00 -1.24023053E-15  7.20855717E-01
  5.55111512E-17 -4.86168578E-16  9.65846876E-01  3.33066907E-16 -2.13265193E-15
  4.23683326E+00
Nuclear charges                            R   N=          12
  1.00000000E+00  6.00000000E+00  6.00000000E+00  1.00000000E+00  6.00000000E+00
  1.00000000E+00  6.00000000E+00  1.00000000E+00  6.00000000E+00  1.00000000E+00
  6.00000000E+00  1.70000000E+01
Number of basis functions                  I              272
Number of contracted shells                I              120
Number of primitive shells                 I              145
Highest angular momentum                   I                2
Largest degree of contraction              I                3
Shell types                                I   N=         120
           0           0           0           0           1           0
           0           0           0           0           0          -1
          -1          -1          -1          -1          -2           0
           0           0           0           0           0          -1
          -1          -1          -1          -1          -2           0
           0           0           0           1           0           0
           0           0           0           0          -1          -1
          -1          -1          -1          -2           0           0
           0           0           1           0           0           0
           0           0           0          -1          -1          -1
          -1          -1          -2           0           0           0
           0           1           0           0           0           0
           0           0          -1          -1          -1          -1
          -1          -2           0           0           0           0
           1           0           0           0           0           0
           0          -1          -1          -1          -1          -1
          -2           0           0           0           0           0
           0           0           0           0           0           0
           1           1           1           1           1           1
           1           1           1          -1          -1          -2
Number of primitives per shell             I   N=         120
           3           1           1           1           1           1
           1           1           1           1           1           3
           1           1           1           1           1           1
           1           1           1           1           1           3
           1           1           1           1           1           3
           1           1           1           1           1           1
           1           1           1           1           3           1
           1           1           1           1           3           1
           1           1           1           1           1           1
           1           1           1           3           1           1
           1           1           1           3           1           1
           1           1           1           1           1           1
           1           1           3           1           1           1
           1           1           3           1           1           1
           1           1           1           1           1           1
           1           3           1           1           1           1
           1           1           1           1           1           1
           1           3           1           1           1           1
           1           1           1           1           1           2
           1           1           1           1           1           1
Shell to atom map                          I   N=         120
           1           1           1           1           1           2
           2           2           2           2           2           2
           2           2           2           2           2           3
           3           3           3           3           3           3
           3           3           3           3           3           4
           4           4           4           4           5           5
           5           5           5           5           5           5
           5           5           5           5           6           6
           6           6           6           7           7           7
           7           7           7           7           7           7
           7           7           7           8           8           8
           8           8           9           9           9           9
           9           9           9           9           9           9
           9           9          10          10          10          10
          10          11          11          11          11          11
          11          11          11          11          11          11
          11          12          12          12          12          12
          12          12          12          12          12          12
          12          12          12          12          12          12
          12          12          12          12          12          12
Primitive exponents                        R   N=         145
  3.38650000E+01  5.09479000E+00  1.15879000E+00  3.25840000E-01  1.02741000E-01
  3.60000000E-02  7.50000000E-01  4.56324000E+03  6.82024000E+02  1.54973000E+02
  4.44553000E+01  1.30290000E+01  1.82773000E+00  2.09642000E+01  4.80331000E+00
  1.45933000E+00  4.83456000E-01  1.45585000E-01  4.38000000E-02  1.31927711E-02
  6.26000000E-01  4.56324000E+03  6.82024000E+02  1.54973000E+02  4.44553000E+01
  1.30290000E+01  1.82773000E+00  2.09642000E+01  4.80331000E+00  1.45933000E+00
  4.83456000E-01  1.45585000E-01  4.38000000E-02  1.31927711E-02  6.26000000E-01
  3.38650000E+01  5.09479000E+00  1.15879000E+00  3.25840000E-01  1.02741000E-01
  3.60000000E-02  7.50000000E-01  4.56324000E+03  6.82024000E+02  1.54973000E+02
  4.44553000E+01  1.30290000E+01  1.82773000E+00  2.09642000E+01  4.80331000E+00
  1.45933000E+00  4.83456000E-01  1.45585000E-01  4.38000000E-02  1.31927711E-02
  6.26000000E-01  3.38650000E+01  5.09479000E+00  1.15879000E+00  3.25840000E-01
  1.02741000E-01  3.60000000E-02  7.50000000E-01  4.56324000E+03  6.82024000E+02
  1.54973000E+02  4.44553000E+01  1.30290000E+01  1.82773000E+00  2.09642000E+01
  4.80331000E+00  1.45933000E+00  4.83456000E-01  1.45585000E-01  4.38000000E-02
  1.31927711E-02  6.26000000E-01  3.38650000E+01  5.09479000E+00  1.15879000E+00
  3.25840000E-01  1.02741000E-01  3.60000000E-02  7.50000000E-01  4.56324000E+03
  6.82024000E+02  1.54973000E+02  4.44553000E+01  1.30290000E+01  1.82773000E+00
  2.09642000E+01  4.80331000E+00  1.45933000E+00  4.83456000E-01  1.45585000E-01
  4.38000000E-02  1.31927711E-02  6.26000000E-01  3.38650000E+01  5.09479000E+00
  1.15879000E+00  3.25840000E-01  1.02741000E-01  3.60000000E-02  7.50000000E-01
  4.56324000E+03  6.82024000E+02  1.54973000E+02  4.44553000E+01  1.30290000E+01
  1.82773000E+00  2.09642000E+01  4.80331000E+00  1.45933000E+00  4.83456000E-01
  1.45585000E-01  4.38000000E-02  1.31927711E-02  6.26000000E-01  1.05819000E+05
  1.58720000E+04  3.61965000E+03  1.03080000E+03  3.39908000E+02  1.24538000E+02
  1.24538000E+02  4.95135000E+01  2.08056000E+01  6.58346000E+00  2.56468000E+00
  5.59763000E-01  1.83273000E-01  5.89776000E+02  1.39849000E+02  4.51413000E+01
  1.68733000E+01  6.74110000E+00  6.74110000E+00  2.77152000E+00  1.02387000E+00
  3.81368000E-01  1.09437000E-01  4.83000000E-02  1.45481928E-02  7.50000000E-01
Contraction coefficients                   R   N=         145
  2.54938145E-02  1.90373109E-01  8.52161486E-01  1.00000000E+00  1.00000000E+00
  1.00000000E+00  1.00000000E+00  1.00000000E+00  1.00000000E+00  1.00000000E+00
  1.00000000E+00  1.00000000E+00  1.00000000E+00  1.14660081E-01  9.19999648E-01
 -3.03068213E-03  1.00000000E+00  1.00000000E+00  1.00000000E+00  1.00000000E+00
  1.00000000E+00  1.00000000E+00  1.00000000E+00  1.00000000E+00  1.00000000E+00
  1.00000000E+00  1.00000000E+00  1.14660081E-01  9.19999648E-01 -3.03068213E-03
  1.00000000E+00  1.00000000E+00  1.00000000E+00  1.00000000E+00  1.00000000E+00
  2.54938145E-02  1.90373109E-01  8.52161486E-01  1.00000000E+00  1.00000000E+00
  1.00000000E+00  1.00000000E+00  1.00000000E+00  1.00000000E+00  1.00000000E+00
  1.00000000E+00  1.00000000E+00  1.00000000E+00  1.14660081E-01  9.19999648E-01
 -3.03068213E-03  1.00000000E+00  1.00000000E+00  1.00000000E+00  1.00000000E+00
  1.00000000E+00  2.54938145E-02  1.90373109E-01  8.52161486E-01  1.00000000E+00
  1.00000000E+00  1.00000000E+00  1.00000000E+00  1.00000000E+00  1.00000000E+00
  1.00000000E+00  1.00000000E+00  1.00000000E+00  1.00000000E+00  1.14660081E-01
  9.19999648E-01 -3.03068213E-03  1.00000000E+00  1.00000000E+00  1.00000000E+00
  1.00000000E+00  1.00000000E+00  2.54938145E-02  1.90373109E-01  8.52161486E-01
  1.00000000E+00  1.00000000E+00  1.00000000E+00  1.00000000E+00  1.00000000E+00
  1.00000000E+00  1.00000000E+00  1.00000000E+00  1.00000000E+00  1.00000000E+00
  1.14660081E-01  9.19999648E-01 -3.03068213E-03  1.00000000E+00  1.00000000E+00
  1.00000000E+00  1.00000000E+00  1.00000000E+00  2.54938145E-02  1.90373109E-01
  8.52161486E-01  1.00000000E+00  1.00000000E+00  1.00000000E+00  1.00000000E+00
  1.00000000E+00  1.00000000E+00  1.00000000E+00  1.00000000E+00  1.00000000E+00
  1.00000000E+00  1.14660081E-01  9.19999648E-01 -3.03068213E-03  1.00000000E+00
  1.00000000E+00  1.00000000E+00  1.00000000E+00  1.00000000E+00  1.00000000E+00
  1.00000000E+00  1.00000000E+00  1.00000000E+00  1.00000000E+00  1.00000000E+00
  1.34176973E-01  6.24249876E-01  2.91755942E-01  1.00000000E+00  1.00000000E+00
  1.00000000E+00  1.00000000E+00  1.00000000E+00  1.00000000E+00  1.00000000E+00
  1.00000000E+00  1.00000000E+00 -1.57224381E+00  9.92388882E-01  1.00000000E+00
  1.00000000E+00  1.00000000E+00  1.00000000E+00  1.00000000E+00  1.00000000E+00
P(S=P) Contraction coefficients            R   N=         145
  0.00000000E+00  0.00000000E+00  0.00000000E+00  0.00000000E+00  0.00000000E+00
  0.00000000E+00  0.00000000E+00  0.00000000E+00  0.00000000E+00  0.00000000E+00
  0.00000000E+00  0.00000000E+00  0.00000000E+00  4.02486927E-02  2.37593957E-01
  8.15853851E-01  1.00000000E+00  1.00000000E+00  1.00000000E+00  1.00000000E+00
  0.00000000E+00  0.00000000E+00  0.00000000E+00  0.00000000E+00  0.00000000E+00
  0.00000000E+00  0.00000000E+00  4.02486927E-02  2.37593957E-01  8.15853851E-01
  1.00000000E+00  1.00000000E+00  1.00000000E+00  1.00000000E+00  0.00000000E+00
  0.00000000E+00  0.00000000E+00  0.00000000E+00  0.00000000E+00  0.00000000E+00
  0.00000000E+00  0.00000000E+00  0.00000000E+00  0.00000000E+00  0.00000000E+00
  0.00000000E+00  0.00000000E+00  0.00000000E+00  4.02486927E-02  2.37593957E-01
  8.15853851E-01  1.00000000E+00  1.00000000E+00  1.00000000E+00  1.00000000E+00
  0.00000000E+00  0.00000000E+00  0.00000000E+00  0.00000000E+00  0.00000000E+00
  0.00000000E+00  0.00000000E+00  0.00000000E+00  0.00000000E+00  0.00000000E+00
  0.00000000E+00  0.00000000E+00  0.00000000E+00  0.00000000E+00  4.02486927E-02
  2.37593957E-01  8.15853851E-01  1.00000000E+00  1.00000000E+00  1.00000000E+00
  1.00000000E+00  0.00000000E+00  0.00000000E+00  0.00000000E+00  0.00000000E+00
  0.00000000E+00  0.00000000E+00  0.00000000E+00  0.00000000E+00  0.00000000E+00
  0.00000000E+00  0.00000000E+00  0.00000000E+00  0.00000000E+00  0.00000000E+00
  4.02486927E-02  2.37593957E-01  8.15853851E-01  1.00000000E+00  1.00000000E+00
  1.00000000E+00  1.00000000E+00  0.00000000E+00  0.00000000E+00  0.00000000E+00
  0.00000000E+00  0.00000000E+00  0.00000000E+00  0.00000000E+00  0.00000000E+00
  0.00000000E+00  0.00000000E+00  0.00000000E+00  0.00000000E+00  0.00000000E+00
  0.00000000E+00  4.02486927E-02  2.37593957E-01  8.15853851E-01  1.00000000E+00
  1.00000000E+00  1.00000000E+00  1.00000000E+00  0.00000000E+00  0.00000000E+00
  0.00000000E+00  0.00000000E+00  0.00000000E+00  0.00000000E+00  0.00000000E+00
  0.00000000E+00  0.00000000E+00  0.00000000E+00  0.00000000E+00  0.00000000E+00
  0.00000000E+00  0.00000000E+00  0.00000000E+00  0.00000000E+00  0.00000000E+00
  0.00000000E+00  0.00000000E+00  0.00000000E+00  0.00000000E+00  0.00000000E+00
  0.00000000E+00  0.00000000E+00  1.00000000E+00  1.00000000E+00  0.00000000E+00
Coordinates of each shell                  R   N=         360
 -4.04407442E+00  5.14530819E-16  7.20855717E-01 -4.04407442E+00  5.14530819E-16
  7.20855717E-01 -4.04407442E+00  5.14530819E-16  7.20855717E-01 -4.04407442E+00
  5.14530819E-16  7.20855717E-01 -4.04407442E+00  5.14530819E-16  7.20855717E-01
 -2.29045828E+00  6.60349928E-16 -3.24667104E-01 -2.29045828E+00  6.60349928E-16
 -3.24667104E-01 -2.29045828E+00  6.60349928E-16 -3.24667104E-01 -2.29045828E+00
  6.60349928E-16 -3.24667104E-01 -2.29045828E+00  6.60349928E-16 -3.24667104E-01
 -2.29045828E+00  6.60349928E-16 -3.24667104E-01 -2.29045828E+00  6.60349928E-16
 -3.24667104E-01 -2.29045828E+00  6.60349928E-16 -3.24667104E-01 -2.29045828E+00
  6.60349928E-16 -3.24667104E-01 -2.29045828E+00  6.60349928E-16 -3.24667104E-01
 -2.29045828E+00  6.60349928E-16 -3.24667104E-01 -2.29045828E+00  6.60349928E-16
 -3.24667104E-01 -2.27578895E+00  1.98114721E-15 -2.95495188E+00 -2.27578895E+00
  1.98114721E-15 -2.95495188E+00 -2.27578895E+00  1.98114721E-15 -2.95495188E+00
 -2.27578895E+00  1.98114721E-15 -2.95495188E+00 -2.27578895E+00  1.98114721E-15
 -2.95495188E+00 -2.27578895E+00  1.98114721E-15 -2.95495188E+00 -2.27578895E+00
  1.98114721E-15 -2.95495188E+00 -2.27578895E+00  1.98114721E-15 -2.95495188E+00
 -2.27578895E+00  1.98114721E-15 -2.95495188E+00 -2.27578895E+00  1.98114721E-15
 -2.95495188E+00 -2.27578895E+00  1.98114721E-15 -2.95495188E+00 -2.27578895E+00
  1.98114721E-15 -2.95495188E+00 -4.05104140E+00  2.87570984E-15 -3.96697807E+00
 -4.05104140E+00  2.87570984E-15 -3.96697807E+00 -4.05104140E+00  2.87570984E-15
 -3.96697807E+00 -4.05104140E+00  2.87570984E-15 -3.96697807E+00 -4.05104140E+00
  2.87570984E-15 -3.96697807E+00 -4.44089210E-16  2.15229902E-15 -4.27586515E+00
 -4.44089210E-16  2.15229902E-15 -4.27586515E+00 -4.44089210E-16  2.15229902E-15
 -4.27586515E+00 -4.44089210E-16  2.15229902E-15 -4.27586515E+00 -4.44089210E-16
  2.15229902E-15 -4.27586515E+00 -4.44089210E-16  2.15229902E-15 -4.27586515E+00
 -4.44089210E-16  2.15229902E-15 -4.27586515E+00 -4.44089210E-16  2.15229902E-15
 -4.27586515E+00 -4.44089210E-16  2.15229902E-15 -4.27586515E+00 -4.44089210E-16
  2.15229902E-15 -4.27586515E+00 -4.44089210E-16  2.15229902E-15 -4.27586515E+00
 -4.44089210E-16  2.15229902E-15 -4.27586515E+00 -4.44089210E-16  3.18042068E-15
 -6.31838321E+00 -4.44089210E-16  3.18042068E-15 -6.31838321E+00 -4.44089210E-16
  3.18042068E-15 -6.31838321E+00 -4.44089210E-16  3.18042068E-15 -6.31838321E+00
 -4.44089210E-16  3.18042068E-15 -6.31838321E+00  2.27578895E+00  9.93661305E-16
 -2.95495188E+00  2.27578895E+00  9.93661305E-16 -2.95495188E+00  2.27578895E+00
  9.93661305E-16 -2.95495188E+00  2.27578895E+00  9.93661305E-16 -2.95495188E+00
  2.27578895E+00  9.93661305E-16 -2.95495188E+00  2.27578895E+00  9.93661305E-16
 -2.95495188E+00  2.27578895E+00  9.93661305E-16 -2.95495188E+00  2.27578895E+00
  9.93661305E-16 -2.95495188E+00  2.27578895E+00  9.93661305E-16 -2.95495188E+00
  2.27578895E+00  9.93661305E-16 -2.95495188E+00  2.27578895E+00  9.93661305E-16
 -2.95495188E+00  2.27578895E+00  9.93661305E-16 -2.95495188E+00  4.05104140E+00
  1.11792546E-15 -3.96697807E+00  4.05104140E+00  1.11792546E-15 -3.96697807E+00
  4.05104140E+00  1.11792546E-15 -3.96697807E+00  4.05104140E+00  1.11792546E-15
 -3.96697807E+00  4.05104140E+00  1.11792546E-15 -3.96697807E+00  2.29045828E+00
 -3.33501133E-16 -3.24667104E-01  2.29045828E+00 -3.33501133E-16 -3.24667104E-01
  2.29045828E+00 -3.33501133E-16 -3.24667104E-01  2.29045828E+00 -3.33501133E-16
 -3.24667104E-01  2.29045828E+00 -3.33501133E-16 -3.24667104E-01  2.29045828E+00
 -3.33501133E-16 -3.24667104E-01  2.29045828E+00 -3.33501133E-16 -3.24667104E-01
  2.29045828E+00 -3.33501133E-16 -3.24667104E-01  2.29045828E+00 -3.33501133E-16
 -3.24667104E-01  2.29045828E+00 -3.33501133E-16 -3.24667104E-01  2.29045828E+00
 -3.33501133E-16 -3.24667104E-01  2.29045828E+00 -3.33501133E-16 -3.24667104E-01
  4.04407442E+00 -1.24023053E-15  7.20855717E-01  4.04407442E+00 -1.24023053E-15
  7.20855717E-01  4.04407442E+00 -1.24023053E-15  7.20855717E-01  4.04407442E+00
 -1.24023053E-15  7.20855717E-01  4.04407442E+00 -1.24023053E-15  7.20855717E-01
  5.55111512E-17 -4.86168578E-16  9.65846876E-01  5.55111512E-17 -4.86168578E-16
  9.65846876E-01  5.55111512E-17 -4.86168578E-16  9.65846876E-01  5.55111512E-17
 -4.86168578E-16  9.65846876E-01  5.55111512E-17 -4.86168578E-16  9.65846876E-01
  5.55111512E-17 -4.86168578E-16  9.65846876E-01  5.55111512E-17 -4.86168578E-16
  9.65846876E-01  5.55111512E-17 -4.86168578E-16  9.65846876E-01  5.55111512E-17
 -4.86168578E-16  9.65846876E-01  5.55111512E-17 -4.86168578E-16  9.65846876E-01
  5.55111512E-17 -4.86168578E-16  9.65846876E-01  5.55111512E-17 -4.86168578E-16
  9.65846876E-01  3.33066907E-16 -2.13265193E-15  4.23683326E+00  3.33066907E-16
 -2.13265193E-15  4.23683326E+00  3.33066907E-16 -2.13265193E-15  4.23683326E+00
  3.33066907E-16 -2.13265193E-15  4.23683326E+00  3.33066907E-16 -2.13265193E-15
  4.23683326E+00  3.33066907E-16 -2.13265193E-15  4.23683326E+00  3.33066907E-16
 -2.13265193E-15  4.23683326E+00  3.33066907E-16 -2.13265193E-15  4.23683326E+00
  3.33066907E-16 -2.13265193E-15  4.23683326E+00  3.33066907E-16 -2.13265193E-15
  4.23683326E+00  3.33066907E-16 -2.13265193E-15  4.23683326E+00  3.33066907E-16
 -2.13265193E-15  4.23683326E+00  3.33066907E-16 -2.13265193E-15  4.23683326E+00
  3.33066907E-16 -2.13265193E-15  4.23683326E+00  3.33066907E-16 -2.13265193E-15
  4.23683326E+00  3.33066907E-16 -2.13265193E-15  4.23683326E+00  3.33066907E-16
 -2.13265193E-15  4.23683326E+00  3.33066907E-16 -2.13265193E-15  4.23683326E+00
  3.33066907E-16 -2.13265193E-15  4.23683326E+00  3.33066907E-16 -2.13265193E-15
  4.23683326E+00  3.33066907E-16 -2.13265193E-15  4.23683326E+00  3.33066907E-16
 -2.13265193E-15  4.23683326E+00  3.33066907E-16 -2.13265193E-15  4.23683326E+00
Overlap Matrix                             R   N=       37128
  1.00000000E+00  7.06377220E-01  1.00000000E+00  3.73663963E-01  7.88963228E-01
  1.00000000E+00  1.83765945E-01  4.63180540E-01  8.20866401E-01  1.00000000E+00
  0.00000000E+00  0.00000000E+00  0.00000000E+00  0.00000000E+00  1.00000000E+00
  1.71030870E-32  0.00000000E+00  0.00000000E+00  0.00000000E+00  0.00000000E+00
  1.00000000E+00 -1.38170980E-16  1.69411764E-16  0.00000000E+00  5.19882088E-17
  0.00000000E+00  0.00000000E+00  1.00000000E+00  3.87495350E-05  5.64914075E-04
  6.02419484E-04  3.62362082E-04  5.47302694E-04  4.55100688E-20 -3.26307133E-04
  1.00000000E+00  1.61978273E-04  2.34997126E-03  2.50578968E-03  1.50737624E-03
  2.27817055E-03  1.89437581E-19 -1.35826720E-03  5.51694548E-01  1.00000000E+00
  5.01624042E-04  7.13869943E-03  7.60963675E-03  4.57903696E-03  6.93814008E-03
  5.76929797E-19 -4.13658588E-03  2.12826495E-01  6.84700925E-01  1.00000000E+00
  1.35812398E-03  1.81984198E-02  1.93796909E-02  1.16730703E-02  1.78260961E-02
  1.48230014E-18 -1.06280901E-02  8.64404477E-02  3.31896391E-01  7.59450552E-01
  1.00000000E+00  4.09261434E-03  4.55573817E-02  4.83636947E-02  2.92281359E-02
  4.56655237E-02  3.79724263E-18 -2.72262247E-02  3.47869195E-02  1.41270397E-01
  3.91244873E-01  7.66208728E-01  1.00000000E+00  4.32389288E-02  1.91594898E-01
  2.00540461E-01  1.24658160E-01  2.03197178E-01  1.68965321E-17 -1.21148113E-01
  8.00319076E-03  3.31807228E-02  9.94601096E-02  2.43102267E-01  5.32448356E-01
  1.00000000E+00  1.13972475E-02  9.08435312E-02  9.58901274E-02  5.83795990E-02
  9.43508008E-02  7.84558798E-18 -5.62528554E-02  2.08457869E-02  8.52645086E-02
  2.43163728E-01  5.23196267E-01  8.77408638E-01  8.20129783E-01  1.00000000E+00
 -9.53565944E-02 -1.52545464E-01 -5.71543633E-02 -1.30578098E-02 -2.03776621E-01
 -2.49786761E-17  1.79097075E-01  0.00000000E+00  0.00000000E+00  8.53690351E-17
  2.11361460E-16  0.00000000E+00  0.00000000E+00 -6.25028583E-16  1.00000000E+00
 -7.92922311E-18 -1.26846709E-17 -4.75257847E-18 -1.08580102E-18 -2.49786761E-17
  9.66161739E-02  1.48925271E-17  1.31409393E-33  7.21128687E-33 -3.94517777E-32
 -4.69316720E-32  0.00000000E+00  1.45494796E-32  1.70450896E-31 -1.39779954E-46
  1.00000000E+00  5.68525192E-02  9.09490734E-02  3.40759814E-02  7.78519187E-03
  1.79097075E-01  1.48925271E-17 -1.01632256E-02  1.01417738E-18  0.00000000E+00
  1.15382471E-17  2.64201826E-17 -4.83157014E-17 -8.19062884E-18 -9.12978422E-17
  7.86891187E-32 -2.03610303E-47  1.00000000E+00  1.92067243E-01  4.31556179E-01
  4.65762401E-01  3.14820773E-01  3.37286214E-01  2.80464886E-17 -2.01093286E-01
  2.95317180E-03  1.22744305E-02  3.71613597E-02  9.37181699E-02  2.26409467E-01
  7.33659241E-01  4.18799588E-01 -7.03849384E-16 -4.49499466E-32  0.00000000E+00
  1.00000000E+00 -3.37227772E-01 -4.23718426E-01 -1.99070832E-01 -5.32059403E-02
 -2.23504457E-01 -4.15871449E-17  2.98179774E-01  0.00000000E+00  0.00000000E+00
  0.00000000E+00  0.00000000E+00  0.00000000E+00 -4.53078117E-16  1.50490636E-18
  6.29120213E-01  0.00000000E+00  0.00000000E+00  0.00000000E+00  1.00000000E+00
 -2.80416290E-17 -3.52336192E-17 -1.65534125E-17 -4.42425376E-18 -4.15871449E-17
  2.76621274E-01  2.47946560E-17  4.04955808E-34  0.00000000E+00  0.00000000E+00
  0.00000000E+00  0.00000000E+00  0.00000000E+00 -5.52191376E-32  0.00000000E+00
  6.29120213E-01  0.00000000E+00  1.37125720E-31  0.00000000E+00  1.00000000E+00
  2.01058443E-01  2.52625003E-01  1.18687946E-01  3.17218936E-02  2.98179774E-01
  2.47946560E-17  9.88436238E-02 -2.27969853E-19  0.00000000E+00  0.00000000E+00
  0.00000000E+00  0.00000000E+00  0.00000000E+00  0.00000000E+00  0.00000000E+00
  0.00000000E+00  6.29120213E-01 -7.71949174E-17  0.00000000E+00 -1.05854086E-47
  1.00000000E+00  2.68955848E-01  5.83926181E-01  7.60533648E-01  6.31306130E-01
  1.88285868E-01  1.56566063E-17 -1.12257847E-01  1.20062311E-03  4.99336924E-03
  1.51557958E-02  3.85309672E-02  9.56005441E-02  3.78026174E-01  1.87145450E-01
  0.00000000E+00 -8.46153414E-32  0.00000000E+00  7.74696784E-01  0.00000000E+00
  0.00000000E+00  0.00000000E+00  1.00000000E+00 -3.22072113E-01 -5.40098015E-01
 -4.21078313E-01 -1.67488650E-01  7.03944001E-02 -1.75458709E-17  1.25803871E-01
  0.00000000E+00 -1.69220204E-18  5.13614502E-18  0.00000000E+00  0.00000000E+00
  1.28109225E-16  0.00000000E+00  2.20230251E-01  0.00000000E+00  0.00000000E+00
  0.00000000E+00  6.53460872E-01  0.00000000E+00  0.00000000E+00  0.00000000E+00
  1.00000000E+00 -2.67813847E-17 -4.49109753E-17 -3.50140849E-17 -1.39272474E-17
 -1.75458709E-17  2.81400507E-01  1.04610171E-17  0.00000000E+00  3.75744333E-34
 -1.14045329E-33  5.79880713E-33 -1.43876252E-32 -2.84459622E-32  9.92792967E-35
  0.00000000E+00  2.20230251E-01  0.00000000E+00  0.00000000E+00  0.00000000E+00
  6.53460872E-01  0.00000000E+00  0.00000000E+00  0.00000000E+00  1.00000000E+00
  1.92022493E-01  3.22011634E-01  2.51050942E-01  9.98583451E-02  1.25803871E-01
  1.04610171E-17  2.06395028E-01  0.00000000E+00  0.00000000E+00  6.42018127E-19
  0.00000000E+00  4.04975648E-18  0.00000000E+00  0.00000000E+00  0.00000000E+00
  0.00000000E+00  2.20230251E-01  0.00000000E+00  0.00000000E+00  0.00000000E+00
  6.53460872E-01  0.00000000E+00  0.00000000E+00  0.00000000E+00  1.00000000E+00
  1.76839543E-01  4.42426538E-01  7.70777755E-01  9.14330867E-01  4.35234682E-02
  3.61912348E-18 -2.59491106E-02  4.87741086E-04  2.02889232E-03  6.16274865E-03
  1.57060290E-02  3.92899037E-02  1.66260628E-01  7.83157104E-02  0.00000000E+00
  0.00000000E+00  0.00000000E+00  4.10096437E-01  0.00000000E+00  5.62347691E-32
 -3.16573606E-17  7.74407735E-01  0.00000000E+00  0.00000000E+00  0.00000000E+00
  1.00000000E+00 -1.25341301E-01 -2.86264959E-01 -3.96657249E-01 -3.02764239E-01
  8.84071547E-02 -2.50989270E-18  1.79959274E-02  0.00000000E+00  0.00000000E+00
  1.14554387E-18 -2.91946764E-18 -7.30328479E-18  0.00000000E+00  0.00000000E+00
  5.73499015E-02  0.00000000E+00  0.00000000E+00  0.00000000E+00  2.26365373E-01
  0.00000000E+00  0.00000000E+00  0.00000000E+00  6.53054566E-01  0.00000000E+00
  0.00000000E+00  0.00000000E+00  1.00000000E+00 -1.04225528E-17 -2.38038989E-17
 -3.29833909E-17 -2.51758697E-17 -2.50989270E-18  1.18591047E-01  1.49642218E-18
  0.00000000E+00  0.00000000E+00  0.00000000E+00  6.48252040E-34  0.00000000E+00
  0.00000000E+00  0.00000000E+00  0.00000000E+00  5.73499015E-02  0.00000000E+00
  1.69263569E-32  0.00000000E+00  2.26365373E-01 -1.30662872E-48  0.00000000E+00
  0.00000000E+00  6.53054566E-01  0.00000000E+00  0.00000000E+00  0.00000000E+00
  1.00000000E+00  7.47296898E-02  1.70673923E-01  2.36490869E-01  1.80510953E-01
  1.79959274E-02  1.49642218E-18  1.07861702E-01  1.13327844E-20  0.00000000E+00
  1.43192984E-19 -3.64933455E-19 -9.12910598E-19  0.00000000E+00  0.00000000E+00
  0.00000000E+00  0.00000000E+00  5.73499015E-02 -9.52869183E-18  0.00000000E+00
 -1.30662872E-48  2.26365373E-01  0.00000000E+00  0.00000000E+00  0.00000000E+00
  6.53054566E-01  0.00000000E+00  0.00000000E+00  0.00000000E+00  1.00000000E+00
  8.42392524E-02  2.28157487E-01  4.82086783E-01  8.01114259E-01  6.62016733E-03
  5.50489288E-19 -3.94700747E-03  1.98307960E-04  8.24963378E-04  2.50639508E-03
  6.39235755E-03  1.60307708E-02  6.92911373E-02  3.21309381E-02  0.00000000E+00
 -4.08046670E-34  2.29709854E-19  1.82385657E-01  0.00000000E+00  2.50097645E-32
  0.00000000E+00  4.10156818E-01  0.00000000E+00  0.00000000E+00  0.00000000E+00
  7.74770250E-01 -1.44015822E-16  0.00000000E+00  0.00000000E+00  1.00000000E+00
 -3.35741324E-02 -8.83344253E-02 -1.72104250E-01 -2.36171898E-01  3.02467131E-02
 -2.17925691E-19  1.56252692E-03  0.00000000E+00 -8.41594523E-20  0.00000000E+00
  6.52122657E-19 -1.63539488E-18 -7.06880368E-18  0.00000000E+00  1.34409213E-02
  0.00000000E+00  0.00000000E+00  0.00000000E+00  5.86567239E-02  0.00000000E+00
  0.00000000E+00  0.00000000E+00  2.26420924E-01  0.00000000E+00  0.00000000E+00
 -7.90389508E-17  6.53564158E-01  0.00000000E+00  0.00000000E+00  0.00000000E+00
  1.00000000E+00 -2.79180259E-18 -7.34530601E-18 -1.43110501E-17 -1.96384915E-17
 -2.17925691E-19  3.28674808E-02  1.29929394E-19  0.00000000E+00  1.86871523E-35
  0.00000000E+00  0.00000000E+00  0.00000000E+00  1.56958972E-33 -2.91607822E-35
  0.00000000E+00  1.34409213E-02 -5.20341041E-51  4.13141801E-33  0.00000000E+00
  5.86567239E-02  0.00000000E+00  0.00000000E+00  0.00000000E+00  2.26420924E-01
  0.00000000E+00  0.00000000E+00  0.00000000E+00  6.53564158E-01  0.00000000E+00
  0.00000000E+00  0.00000000E+00  1.00000000E+00  2.00172209E-02  5.26658344E-02
  1.02610210E-01  1.40807958E-01  1.56252692E-03  1.29929394E-19  3.19358872E-02
  0.00000000E+00 -1.05199315E-20  0.00000000E+00  8.15153321E-20  0.00000000E+00
 -8.83600460E-19  1.64160610E-20  0.00000000E+00 -5.20341041E-51  1.34409213E-02
  0.00000000E+00  0.00000000E+00  0.00000000E+00  5.86567239E-02  0.00000000E+00
  0.00000000E+00  0.00000000E+00  2.26420924E-01  0.00000000E+00  0.00000000E+00
  0.00000000E+00  6.53564158E-01  0.00000000E+00  0.00000000E+00  0.00000000E+00
  1.00000000E+00 -4.44006851E-02 -2.84933832E-02 -5.13347036E-03 -5.03607455E-04
  1.45235647E-01  1.20768349E-17  2.86275970E-01  0.00000000E+00  0.00000000E+00
  0.00000000E+00  0.00000000E+00  0.00000000E+00  0.00000000E+00  0.00000000E+00
  0.00000000E+00  0.00000000E+00 -6.65774181E-17  0.00000000E+00  0.00000000E+00
  0.00000000E+00  0.00000000E+00  0.00000000E+00  0.00000000E+00 -4.87973497E-32
  0.00000000E+00  0.00000000E+00  0.00000000E+00  0.00000000E+00  0.00000000E+00
  0.00000000E+00  0.00000000E+00  0.00000000E+00  0.00000000E+00  1.00000000E+00
 -3.17233470E-01 -2.03579174E-01 -3.66775561E-02 -3.59816837E-03 -2.36486895E-01
 -3.75655103E-17 -9.17276445E-02  0.00000000E+00  0.00000000E+00  0.00000000E+00
  0.00000000E+00  0.00000000E+00  0.00000000E+00  0.00000000E+00 -5.76577354E-17
  0.00000000E+00  0.00000000E+00  0.00000000E+00  0.00000000E+00  0.00000000E+00
  0.00000000E+00  0.00000000E+00  0.00000000E+00  0.00000000E+00  0.00000000E+00
  0.00000000E+00  0.00000000E+00  0.00000000E+00  0.00000000E+00  0.00000000E+00
  0.00000000E+00  0.00000000E+00  0.00000000E+00  0.00000000E+00  1.00000000E+00
 -2.63790352E-17 -1.69282964E-17 -3.04986275E-18 -2.99199861E-19 -3.75655103E-17
  2.15274782E-01 -7.62746366E-18  0.00000000E+00  0.00000000E+00 -6.17422677E-49