Q-Chem Developer Version!
                  Welcome to Q-Chem
     A Quantum Leap Into The Future Of Chemistry


 Q-Chem 5.1, Q-Chem, Inc., Pleasanton, CA (2018)

 Yihan Shao,  Zhengting Gan,  E. Epifanovsky,  A. T. B. Gilbert,  M. Wormit,  
 J. Kussmann,  A. W. Lange,  A. Behn,  Jia Deng,  Xintian Feng,  D. Ghosh,  
 M. Goldey,  P. R. Horn,  L. D. Jacobson,  I. Kaliman,  T. Kus,  A. Landau,  
 Jie Liu,  E. I. Proynov,  R. M. Richard,  R. P. Steele,  E. J. Sundstrom,  
 H. L. Woodcock III,  P. M. Zimmerman,  D. Zuev,  B. Albrecht,  E. Alguire,  
 S. A. Baeppler,  D. Barton,  Z. Benda,  Y. A. Bernard,  E. J. Berquist,  
 K. B. Bravaya,  H. Burton,  D. Casanova,  Chun-Min Chang,  Yunqing Chen,  
 A. Chien,  K. D. Closser,  M. P. Coons,  S. Coriani,  S. Dasgupta,  
 A. L. Dempwolff,  M. Diedenhofen,  Hainam Do,  R. G. Edgar,  Po-Tung Fang,  
 S. Faraji,  S. Fatehi,  Qingguo Feng,  K. D. Fenk,  J. Fosso-Tande,  
 Qinghui Ge,  A. Ghysels,  G. Gidofalvi,  J. Gomes,  J. Gonthier,  A. Gunina,  
 D. Hait,  M. W. D. Hanson-Heine,  P. H. P. Harbach,  A. W. Hauser,  
 J. E. Herr,  E. G. Hohenstein,  Z. C. Holden,  Kerwin Hui,  B. C. Huynh,  
 T.-C. Jagau,  Hyunjun Ji,  B. Kaduk,  K. Khistyaev,  Jaehoon Kim,  
 P. Klunzinger,  K. Koh,  D. Kosenkov,  L. Koulias,  T. Kowalczyk,  
 C. M. Krauter,  A. Kunitsa,  Ka Un Lao,  A. Laurent,  K. V. Lawler,  
 Joonho Lee,  D. Lefrancois,  S. Lehtola,  D. S. Levine,  Yi-Pei Li,  
 You-Sheng Lin,  Fenglai Liu,  E. Livshits,  A. Luenser,  P. Manohar,  
 E. Mansoor,  S. F. Manzer,  Shan-Ping Mao,  Yuezhi Mao,  N. Mardirossian,  
 A. V. Marenich,  T. Markovich,  L. A. Martinez-Martinez,  S. A. Maurer,  
 N. J. Mayhall,  S. C. McKenzie,  J.-M. Mewes,  A. F. Morrison,  
 J. W. Mullinax,  K. Nanda,  T. S. Nguyen-Beck,  R. Olivares-Amaya,  
 J. A. Parkhill,  T. M. Perrine,  F. Plasser,  P. Pokhilko,  S. Prager,  
 A. Prociuk,  E. Ramos,  D. R. Rehn,  F. Rob,  M. Schneider,  N. Sergueev,  
 S. M. Sharada,  S. Sharma,  D. W. Small,  T. Stauch,  T. Stein,  
 Yu-Chuan Su,  A. J. W. Thom,  A. Tkatchenko,  T. Tsuchimochi,  N. M. Tubman,  
 L. Vogt,  M. L. Vidal,  O. Vydrov,  M. A. Watson,  J. Wenzel,  
 M. de Wergifosse,  T. A. Wesolowski,  A. White,  J. Witte,  A. Yamada,  
 Jun Yang,  K. Yao,  S. Yeganeh,  S. R. Yost,  Zhi-Qiang You,  A. Zech,  
 Igor Ying Zhang,  Xing Zhang,  Yan Zhao,  Ying Zhu,  B. R. Brooks,  
 G. K. L. Chan,  C. J. Cramer,  M. S. Gordon,  W. J. Hehre,  A. Klamt,  
 M. W. Schmidt,  C. D. Sherrill,  D. G. Truhlar,  A. Aspuru-Guzik,  R. Baer,  
 A. T. Bell,  N. A. Besley,  Jeng-Da Chai,  A. E. DePrince, III,  
 R. A. DiStasio Jr.,  A. Dreuw,  B. D. Dunietz,  T. R. Furlani,  
 Chao-Ping Hsu,  Yousung Jung,  Jing Kong,  D. S. Lambrecht,  WanZhen Liang,  
 C. Ochsenfeld,  V. A. Rassolov,  L. V. Slipchenko,  J. E. Subotnik,  
 T. Van Voorhis,  J. M. Herbert,  A. I. Krylov,  P. M. W. Gill,  M. Head-Gordon

 Contributors to earlier versions of Q-Chem not listed above: 
 R. D. Adamson,  B. Austin,  J. Baker,  G. J. O. Beran,  K. Brandhorst,  
 S. T. Brown,  E. F. C. Byrd,  A. K. Chakraborty,  C.-L. Cheng,  
 Siu Hung Chien,  D. M. Chipman,  D. L. Crittenden,  H. Dachsel,  
 R. J. Doerksen,  A. D. Dutoi,  L. Fusti-Molnar,  W. A. Goddard III,  
 A. Golubeva-Zadorozhnaya,  S. R. Gwaltney,  G. Hawkins,  A. Heyden,  
 S. Hirata,  G. Kedziora,  F. J. Keil,  C. Kelley,  Jihan Kim,  R. A. King,  
 R. Z. Khaliullin,  P. P. Korambath,  W. Kurlancheek,  A. M. Lee,  M. S. Lee,  
 S. V. Levchenko,  Ching Yeh Lin,  D. Liotard,  R. C. Lochan,  I. Lotan,  
 P. E. Maslen,  N. Nair,  D. P. O'Neill,  D. Neuhauser,  E. Neuscamman,  
 C. M. Oana,  R. Olson,  B. Peters,  R. Peverati,  P. A. Pieniazek,  
 Y. M. Rhee,  J. Ritchie,  M. A. Rohrdanz,  E. Rosta,  N. J. Russ,  
 H. F. Schaefer III,  N. E. Schultz,  N. Shenvi,  A. C. Simmonett,  A. Sodt,  
 D. Stuck,  K. S. Thanthiriwatte,  V. Vanovschi,  Tao Wang,  A. Warshel,  
 C. F. Williams,  Q. Wu,  X. Xu,  W. Zhang

 Please cite Q-Chem as follows:
 Y. Shao et al., Mol. Phys. 113, 184-215 (2015)
 DOI: 10.1080/00268976.2014.952696

 Q-Chem 5.1.1 for Mac (Intel) OS X

 Parts of Q-Chem use Armadillo 8.300.2 (Tropical Shenanigans).
 http://arma.sourceforge.net/

 Q-Chem begins on Sat Oct 20 07:30:17 2018  

Annas-MacBook-Pro-3.local
Host: 0

     Scratch files written to /scratch/qchem12748//
Processing $rem in /Users/annakrylov/.qchemrc.
CC_MEMORY  4000
Input Ideriv = 2
Curr. Ideriv = -1
Max.  Ideriv = 2

Checking the input file for inconsistencies... 	...done.

 Q-Chem warning in module forms1/BasisType.C, line 1703:

 Setting pure/cartesian flag to 2111 for general basis



--------------------------------------------------------------
User input:
--------------------------------------------------------------
$comment
Optimized Cl-Bz, XAS, 
6-311(2+,+)G** with uncontacted core on carbon and chlorine (both S and P)
$end

$molecule
0 1
 H        -2.1400320233    0.0000000000    0.5090177858
 C        -1.2120583232    0.0000000000   -0.0442490642
 C        -1.2042956497    0.0000000000   -1.4361358281
 H        -2.1437187877    0.0000000000   -1.9716770234
 C         0.0000000000    0.0000000000   -2.1351330277
 H         0.0000000000    0.0000000000   -3.2159870334
 C         1.2042956497    0.0000000000   -1.4361358281
 H         2.1437187877    0.0000000000   -1.9716770234
 C         1.2120583232    0.0000000000   -0.0442490642
 H         2.1400320233    0.0000000000    0.5090177858
 C         0.0000000000    0.0000000000    0.6386615242
 Cl        0.0000000000    0.0000000000    2.3695929760
$end

$rem
   JOB_TYPE  =  SP
   GUI = 2
   BASIS  =  general
   METHOD  =  HF
$end

$basis
H    0
S    3    1.000000
   3.38650000E+01    2.54938000E-02 
   5.09479000E+00    1.90373000E-01 
   1.15879000E+00    8.52161000E-01 
S    1    1.000000
   3.25840000E-01    1.00000000E+00 
S    1    1.000000
   1.02741000E-01    1.00000000E+00 
S    1    1.000000
   3.60000000E-02    1.00000000E+00 
P    1    1.000000
   7.50000000E-01    1.00000000E+00 
****
C    0
S    1    1.000000
   4.56324000E+03    1.96665000E-03 
S    1    1.000000
   6.82024000E+02    1.52306000E-02 
S    1    1.000000
   1.54973000E+02    7.61269000E-02 
S    1    1.000000
   4.44553000E+01    2.60801000E-01 
S    1    1.000000
   1.30290000E+01    6.16462000E-01 
S    1    1.000000
   1.82773000E+00    2.21006000E-01 
SP   3    1.000000
   2.09642000E+01    1.14660000E-01   4.02487000E-02 
   4.80331000E+00    9.19999000E-01   2.37594000E-01 
   1.45933000E+00   -3.03068000E-03   8.15854000E-01 
SP   1    1.000000
   4.83456000E-01    1.00000000E+00   1.00000000E+00 
SP   1    1.000000
   1.45585000E-01    1.00000000E+00   1.00000000E+00 
SP   1    1.000000
   4.38000000E-02    1.00000000E+00   1.00000000E+00 
SP   1    1.000000
   1.31927711E-02    1.00000000E+00   1.00000000E+00 
D    1    1.000000
   6.26000000E-01    1.00000000E+00 
****
Cl   0
S    1    1.000000
   1.05819000E+05    7.38000000E-04 
S    1    1.000000
   1.58720000E+04    5.71800000E-03 
S    1    1.000000
   3.61965000E+03    2.94950000E-02 
S    1    1.000000
   1.03080000E+03    1.17286000E-01 
S    1    1.000000
   3.39908000E+02    3.62949000E-01 
S    1    1.000000
   1.24538000E+02    5.84149000E-01 
S    3    1.000000
   1.24538000E+02    1.34177000E-01 
   4.95135000E+01    6.24250000E-01 
   2.08056000E+01    2.91756000E-01 
S    1    1.000000
   6.58346000E+00    1.00000000E+00 
S    1    1.000000
   2.56468000E+00    1.00000000E+00 
S    1    1.000000
   5.59763000E-01    1.00000000E+00 
S    1    1.000000
   1.83273000E-01    1.00000000E+00 
P    1    1.000000
   5.89776000E+02    2.39100000E-03 
P    1    1.000000
   1.39849000E+02    1.85040000E-02 
P    1    1.000000
   4.51413000E+01    8.13770000E-02 
P    1    1.000000
   1.68733000E+01    2.21552000E-01 
P    1    1.000000
   6.74110000E+00    7.72569000E-01 
P    2    1.000000
   6.74110000E+00   -1.57224400E+00 
   2.77152000E+00    9.92389000E-01 
P    1    1.000000
   1.02387000E+00    1.00000000E+00 
P    1    1.000000
   3.81368000E-01    1.00000000E+00 
P    1    1.000000
   1.09437000E-01    1.00000000E+00 
SP   1    1.000000
   4.83000000E-02    1.00000000E+00   1.00000000E+00 
SP   1    1.000000
   1.45481928E-02    1.00000000E+00   1.00000000E+00 
D    1    1.000000
   7.50000000E-01    1.00000000E+00 
****
$end

--------------------------------------------------------------
 ----------------------------------------------------------------
             Standard Nuclear Orientation (Angstroms)
    I     Atom           X                Y                Z
 ----------------------------------------------------------------
    1      H      -2.1400320233     0.0000000000     0.3814604176
    2      C      -1.2120583232     0.0000000000    -0.1718064324
    3      C      -1.2042956497     0.0000000000    -1.5636931963
    4      H      -2.1437187877     0.0000000000    -2.0992343916
    5      C      -0.0000000000     0.0000000000    -2.2626903959
    6      H      -0.0000000000     0.0000000000    -3.3435444016
    7      C       1.2042956497     0.0000000000    -1.5636931963
    8      H       2.1437187877     0.0000000000    -2.0992343916
    9      C       1.2120583232    -0.0000000000    -0.1718064324
   10      H       2.1400320233    -0.0000000000     0.3814604176
   11      C       0.0000000000    -0.0000000000     0.5111041560
   12      Cl      0.0000000000    -0.0000000000     2.2420356078
 ----------------------------------------------------------------
 Molecular Point Group                 C2v   NOp =  4
 Largest Abelian Subgroup              C2v   NOp =  4
 Nuclear Repulsion Energy =   316.4076139427 hartrees
 There are       29 alpha and       29 beta electrons
 Requested basis set is non-standard
 There are 120 shells and 272 basis functions

 Total QAlloc Memory Limit   2000 MB
 Mega-Array Size       188 MB
 MEM_STATIC part       192 MB

                       Distance Matrix (Angstroms)
             H (  1)   C (  2)   C (  3)   H (  4)   C (  5)   H (  6)
   C (  2)  1.080389
   C (  3)  2.158524  1.391908
   H (  4)  2.480698  2.140787  1.081351
   C (  5)  3.401657  2.416791  1.392453  2.149941
   H (  6)  4.295975  3.395439  2.148999  2.478677  1.080854
   C (  7)  3.868869  2.788569  2.408591  3.390576  1.392453  2.148999
   H (  8)  4.950189  3.869912  3.390576  4.287438  2.149941  2.478677
   C (  9)  3.397442  2.424117  2.788569  3.869912  2.416791  3.395439
   H ( 10)  4.280064  3.397442  3.868869  4.950189  3.401657  4.295975
   C ( 11)  2.143955  1.391205  2.398981  3.377780  2.773795  3.854649
   Cl( 12)  2.835750  2.701059  3.991729  4.841710  4.504726  5.585580
             C (  7)   H (  8)   C (  9)   H ( 10)   C ( 11)
   H (  8)  1.081351
   C (  9)  1.391908  2.140787
   H ( 10)  2.158524  2.480698  1.080389
   C ( 11)  2.398981  3.377780  1.391205  2.143955
   Cl( 12)  3.991729  4.841710  2.701059  2.835750  1.730931

 A cutoff of  1.0D-08 yielded   5438 shell pairs
 There are     32301 function pairs (     34075 Cartesian)
 Smallest overlap matrix eigenvalue = 1.05E-08

 Q-Chem warning in module stvman/mkSTV.C, line 306:

 Overlap eigenvalue is smaller than square root of threshold
 Use THRESH >= 12 to get rid of this warning

 Linear dependence detected in AO basis
 Tighter screening thresholds may be required for diffuse basis sets
 Use S2THRESH > 14 and THRESH = 14 in case of SCF convergence issues
 Number of orthogonalized atomic orbitals = 265
 Maximum deviation from orthogonality = 3.535E-11

 Scale SEOQF with 1.000000e-01/1.000000e-01/1.000000e-01

 Standard Electronic Orientation quadrupole field applied
 Nucleus-field energy     =    -0.0000000161 hartrees
 Guess MOs from core Hamiltonian diagonalization

 -----------------------------------------------------------------------
  General SCF calculation program by
  Eric Jon Sundstrom, Paul Horn, Yuezhi Mao, Dmitri Zuev, Alec White,
  David Stuck, Shaama M.S., Shane Yost, Joonho Lee, David Small,
  Daniel Levine, Susi Lehtola, Hugh Burton, Evgeny Epifanovsky
 -----------------------------------------------------------------------
 Hartree-Fock
 A restricted SCF calculation will be
 performed using DIIS
 SCF converges when DIIS error is below 1.0e-05
 ---------------------------------------
  Cycle       Energy         DIIS error
 ---------------------------------------
    1    -537.1855841144      2.52e-01  
    2    -373.6823061070      9.61e-02  
    3    -432.9346239453      1.79e-01  
    4    -513.0460523009      1.41e-01  
    5    -566.6365593584      1.12e-01  
    6    -627.8282140826      7.99e-02  
    7    -673.8698145028      4.63e-02  
    8    -682.8725078287      2.64e-02  
    9    -688.9575579514      9.65e-03  
   10    -689.5830377173      3.08e-03  
   11    -689.6721499876      9.49e-04  
   12    -689.6807733087      2.57e-04  
   13    -689.6821070942      1.32e-04  
   14    -689.6823789110      3.14e-05  
   15    -689.6823952770      9.31e-06  Convergence criterion met
 ---------------------------------------
 SCF time:   CPU 55.05s  wall 57.00s 
 SCF   energy in the final basis set =     -689.6823952770
 Total energy in the final basis set =     -689.6823952770

 --------------------------------------------------------------
             Orbital Energies (a.u.) and Symmetries
 --------------------------------------------------------------

 Alpha MOs, Restricted
 -- Occupied --                  
-104.84  -11.31  -11.25  -11.25  -11.25  -11.25  -11.25  -10.57
  1 A1    2 A1    3 A1    1 B1    4 A1    2 B1    5 A1    6 A1                 
 -8.033  -8.031  -8.031  -1.196  -1.124  -1.036  -1.000  -0.850
  7 A1    3 B1    1 B2    8 A1    9 A1    4 B1   10 A1    5 B1                 
 -0.823  -0.715  -0.651  -0.651  -0.607  -0.593  -0.547  -0.520
 11 A1   12 A1    6 B1   13 A1    7 B1   14 A1    2 B2    8 B1                 
 -0.515  -0.471  -0.456  -0.353  -0.338
 15 A1    3 B2    9 B1    1 A2    4 B2                                         
 -- Virtual --                   
  0.014   0.020   0.021   0.032   0.032   0.033   0.043   0.044
 16 A1   10 B1   17 A1    5 B2   18 A1   11 B1    2 A2    6 B2                 
  0.045   0.048   0.054   0.055   0.056   0.063   0.063   0.065
 19 A1   20 A1   12 B1    3 A2    7 B2   21 A1    8 B2   13 B1                 
  0.068   0.069   0.070   0.073   0.074   0.078   0.091   0.095
 22 A1    9 B2   14 B1   23 A1   15 B1   24 A1   25 A1   16 B1                 
  0.100   0.102   0.104   0.106   0.126   0.163   0.169   0.172
 26 A1    4 A2   10 B2   17 B1   27 A1   11 B2   28 A1   18 B1                 
  0.176   0.180   0.181   0.192   0.211   0.213   0.214   0.222
 29 A1    5 A2   12 B2   30 A1   19 B1   31 A1   13 B2   32 A1                 
  0.222   0.229   0.232   0.235   0.238   0.243   0.244   0.247
 20 B1   14 B2    6 A2   21 B1   33 A1   15 B2   34 A1   22 B1                 
  0.252   0.264   0.280   0.291   0.295   0.303   0.314   0.330
 23 B1   35 A1   36 A1   24 B1   25 B1   37 A1   38 A1   26 B1                 
  0.357   0.366   0.378   0.414   0.418   0.432   0.441   0.491
 16 B2   39 A1   40 A1   41 A1   27 B1   42 A1   28 B1   43 A1                 
  0.500   0.508   0.509   0.620   0.630   0.643   0.648   0.661
 29 B1   44 A1   30 B1   45 A1   31 B1   32 B1   17 B2   46 A1                 
  0.720   0.731   0.742   0.743   0.745   0.772   0.782   0.793
 47 A1   33 B1   48 A1   18 B2   34 B1    7 A2   19 B2   35 B1                 
  0.821   0.822   0.823   0.880   0.883   0.898   0.934   0.936
 49 A1    8 A2   20 B2   50 A1   21 B2   51 A1   52 A1   36 B1                 
  0.955   0.973   1.018   1.023   1.039   1.060   1.067   1.081
 37 B1   53 A1   38 B1   54 A1   55 A1   39 B1   22 B2   56 A1                 
  1.094   1.100   1.132   1.139   1.173   1.192   1.220   1.225
 57 A1   40 B1   41 B1    9 A2   58 A1   42 B1   59 A1   23 B2                 
  1.235   1.271   1.309   1.352   1.377   1.443   1.467   1.474
 10 A2   60 A1   11 A2   24 B2   12 A2   61 A1   43 B1   62 A1                 
  1.581   1.662   1.728   1.776   1.787   1.824   1.831   1.844
 25 B2   63 A1   44 B1   64 A1   45 B1   26 B2   13 A2   65 A1                 
  1.891   1.908   1.909   1.961   1.999   2.008   2.042   2.103
 27 B2   66 A1   46 B1   67 A1   47 B1   28 B2   14 A2   48 B1                 
  2.168   2.218   2.220   2.221   2.236   2.243   2.285   2.323
 68 A1   49 B1   15 A2   29 B2   50 B1   69 A1   30 B2   70 A1                 
  2.352   2.368   2.390   2.547   2.574   2.624   2.647   2.736
 51 B1   16 A2   71 A1   31 B2   52 B1   32 B2   17 A2   53 B1                 
  2.748   2.798   2.801   2.830   2.861   2.932   2.976   2.992
 72 A1   73 A1   54 B1   74 A1   55 B1   75 A1   76 A1   77 A1                 
  3.009   3.026   3.036   3.042   3.066   3.190   3.194   3.203
 56 B1   78 A1   79 A1   57 B1   33 B2   34 B2   18 A2   58 B1                 
  3.206   3.283   3.288   3.321   3.473   3.567   3.625   3.757
 80 A1   35 B2   19 A2   59 B1   36 B2   60 B1   81 A1   61 B1                 
  3.782   3.902   3.919   4.022   4.187   4.384   4.442   4.510
 82 A1   62 B1   83 A1   84 A1   85 A1   63 B1   86 A1   87 A1                 
  4.516   5.123   5.263   5.442   5.448   5.754   5.779   6.187
 64 B1   88 A1   65 B1   89 A1   66 B1   90 A1   67 B1   91 A1                 
  9.642   9.707   9.794  10.431  20.635  20.696  20.708  20.825
 37 B2   68 B1   92 A1   93 A1   94 A1   95 A1   69 B1   96 A1                 
 20.852  21.127  33.018  33.069  33.146  80.200  80.266  80.282
 70 B1   97 A1   38 B2   71 B1   98 A1   99 A1  100 A1   72 B1                 
 80.380  80.405  80.613 106.886 106.926 106.990 116.062 322.040
101 A1   73 B1  102 A1   39 B2   74 B1  103 A1  104 A1  105 A1                 
322.101 322.118 322.201 322.223 322.391 364.983 365.015 365.065
106 A1   75 B1  107 A1   76 B1  108 A1   40 B2   77 B1  109 A1                 
610.3861431.6071431.6631431.6801431.7491431.7691431.9081551.634
110 A1  111 A1  112 A1   78 B1  113 A1   79 B1  114 A1   41 B2                 
*******1551.6922285.1298391.9078749.8448749.8938749.9098749.964
 80 B1  115 A1  116 A1  117 A1  118 A1  119 A1   81 B1  120 A1                 
*******8750.093****************
 82 B1  121 A1  122 A1  123 A1                                                 

 Beta MOs, Restricted
 -- Occupied --                  
-104.84  -11.31  -11.25  -11.25  -11.25  -11.25  -11.25  -10.57
  1 A1    2 A1    3 A1    1 B1    4 A1    2 B1    5 A1    6 A1                 
 -8.033  -8.031  -8.031  -1.196  -1.124  -1.036  -1.000  -0.850
  7 A1    3 B1    1 B2    8 A1    9 A1    4 B1   10 A1    5 B1                 
 -0.823  -0.715  -0.651  -0.651  -0.607  -0.593  -0.547  -0.520
 11 A1   12 A1    6 B1   13 A1    7 B1   14 A1    2 B2    8 B1                 
 -0.515  -0.471  -0.456  -0.353  -0.338
 15 A1    3 B2    9 B1    1 A2    4 B2                                         
 -- Virtual --                   
  0.014   0.020   0.021   0.032   0.032   0.033   0.043   0.044
 16 A1   10 B1   17 A1    5 B2   18 A1   11 B1    2 A2    6 B2                 
  0.045   0.048   0.054   0.055   0.056   0.063   0.063   0.065
 19 A1   20 A1   12 B1    3 A2    7 B2   21 A1    8 B2   13 B1                 
  0.068   0.069   0.070   0.073   0.074   0.078   0.091   0.095
 22 A1    9 B2   14 B1   23 A1   15 B1   24 A1   25 A1   16 B1                 
  0.100   0.102   0.104   0.106   0.126   0.163   0.169   0.172
 26 A1    4 A2   10 B2   17 B1   27 A1   11 B2   28 A1   18 B1                 
  0.176   0.180   0.181   0.192   0.211   0.213   0.214   0.222
 29 A1    5 A2   12 B2   30 A1   19 B1   31 A1   13 B2   32 A1                 
  0.222   0.229   0.232   0.235   0.238   0.243   0.244   0.247
 20 B1   14 B2    6 A2   21 B1   33 A1   15 B2   34 A1   22 B1                 
  0.252   0.264   0.280   0.291   0.295   0.303   0.314   0.330
 23 B1   35 A1   36 A1   24 B1   25 B1   37 A1   38 A1   26 B1                 
  0.357   0.366   0.378   0.414   0.418   0.432   0.441   0.491
 16 B2   39 A1   40 A1   41 A1   27 B1   42 A1   28 B1   43 A1                 
  0.500   0.508   0.509   0.620   0.630   0.643   0.648   0.661
 29 B1   44 A1   30 B1   45 A1   31 B1   32 B1   17 B2   46 A1                 
  0.720   0.731   0.742   0.743   0.745   0.772   0.782   0.793
 47 A1   33 B1   48 A1   18 B2   34 B1    7 A2   19 B2   35 B1                 
  0.821   0.822   0.823   0.880   0.883   0.898   0.934   0.936
 49 A1    8 A2   20 B2   50 A1   21 B2   51 A1   52 A1   36 B1                 
  0.955   0.973   1.018   1.023   1.039   1.060   1.067   1.081
 37 B1   53 A1   38 B1   54 A1   55 A1   39 B1   22 B2   56 A1                 
  1.094   1.100   1.132   1.139   1.173   1.192   1.220   1.225
 57 A1   40 B1   41 B1    9 A2   58 A1   42 B1   59 A1   23 B2                 
  1.235   1.271   1.309   1.352   1.377   1.443   1.467   1.474
 10 A2   60 A1   11 A2   24 B2   12 A2   61 A1   43 B1   62 A1                 
  1.581   1.662   1.728   1.776   1.787   1.824   1.831   1.844
 25 B2   63 A1   44 B1   64 A1   45 B1   26 B2   13 A2   65 A1                 
  1.891   1.908   1.909   1.961   1.999   2.008   2.042   2.103
 27 B2   66 A1   46 B1   67 A1   47 B1   28 B2   14 A2   48 B1                 
  2.168   2.218   2.220   2.221   2.236   2.243   2.285   2.323
 68 A1   49 B1   15 A2   29 B2   50 B1   69 A1   30 B2   70 A1                 
  2.352   2.368   2.390   2.547   2.574   2.624   2.647   2.736
 51 B1   16 A2   71 A1   31 B2   52 B1   32 B2   17 A2   53 B1                 
  2.748   2.798   2.801   2.830   2.861   2.932   2.976   2.992
 72 A1   73 A1   54 B1   74 A1   55 B1   75 A1   76 A1   77 A1                 
  3.009   3.026   3.036   3.042   3.066   3.190   3.194   3.203
 56 B1   78 A1   79 A1   57 B1   33 B2   34 B2   18 A2   58 B1                 
  3.206   3.283   3.288   3.321   3.473   3.567   3.625   3.757
 80 A1   35 B2   19 A2   59 B1   36 B2   60 B1   81 A1   61 B1                 
  3.782   3.902   3.919   4.022   4.187   4.384   4.442   4.510
 82 A1   62 B1   83 A1   84 A1   85 A1   63 B1   86 A1   87 A1                 
  4.516   5.123   5.263   5.442   5.448   5.754   5.779   6.187
 64 B1   88 A1   65 B1   89 A1   66 B1   90 A1   67 B1   91 A1                 
  9.642   9.707   9.794  10.431  20.635  20.696  20.708  20.825
 37 B2   68 B1   92 A1   93 A1   94 A1   95 A1   69 B1   96 A1                 
 20.852  21.127  33.018  33.069  33.146  80.200  80.266  80.282
 70 B1   97 A1   38 B2   71 B1   98 A1   99 A1  100 A1   72 B1                 
 80.380  80.405  80.613 106.886 106.926 106.990 116.062 322.040
101 A1   73 B1  102 A1   39 B2   74 B1  103 A1  104 A1  105 A1                 
322.101 322.118 322.201 322.223 322.391 364.983 365.015 365.065
106 A1   75 B1  107 A1   76 B1  108 A1   40 B2   77 B1  109 A1                 
610.3861431.6071431.6631431.6801431.7491431.7691431.9081551.634
110 A1  111 A1  112 A1   78 B1  113 A1   79 B1  114 A1   41 B2                 
*******1551.6922285.1298391.9078749.8448749.8938749.9098749.964
 80 B1  115 A1  116 A1  117 A1  118 A1  119 A1   81 B1  120 A1                 
*******8750.093****************
 82 B1  121 A1  122 A1  123 A1                                                 
 --------------------------------------------------------------

          Ground-State Mulliken Net Atomic Charges

     Atom                 Charge (a.u.)
  ----------------------------------------
      1 H                     0.191225
      2 C                    -0.469733
      3 C                    -0.327747
      4 H                     0.223390
      5 C                    -0.334232
      6 H                     0.184105
      7 C                    -0.327747
      8 H                     0.223390
      9 C                    -0.469733
     10 H                     0.191225
     11 C                     0.390672
     12 Cl                    0.525185
  ----------------------------------------
  Sum of atomic charges =     0.000000

 -----------------------------------------------------------------
                    Cartesian Multipole Moments
 -----------------------------------------------------------------
    Charge (ESU x 10^10)
                 0.0000
    Dipole Moment (Debye)
         X      -0.0000      Y      -0.0000      Z      -1.9664
       Tot       1.9664
    Quadrupole Moments (Debye-Ang)
        XX     -42.4473     XY      -0.0000     YY     -52.7503
        XZ      -0.0000     YZ      -0.0000     ZZ     -46.7200
    Octopole Moments (Debye-Ang^2)
       XXX      -0.0000    XXY      -0.0000    XYY      -0.0000
       YYY      -0.0000    XXZ      -1.3701    XYZ       0.0000
       YYZ       7.5143    XZZ      -0.0000    YZZ      -0.0000
       ZZZ      -6.2705
    Hexadecapole Moments (Debye-Ang^3)
      XXXX    -275.2829   XXXY      -0.0000   XXYY     -69.5910
      XYYY      -0.0000   YYYY     -64.7709   XXXZ       0.0000
      XXYZ      -0.0000   XYYZ       0.0000   YYYZ      -0.0000
      XXZZ    -181.1640   XYZZ      -0.0000   YYZZ    -165.9820
      XZZZ       0.0000   YZZZ      -0.0000   ZZZZ    -786.9958
 -----------------------------------------------------------------
Archival summary:
1\1\Annas-MacBook-Pro-3.local\SP\HF\BasisUnspecified\l165\SatOct2007:31:152018SatOct2007:31:152018\0\\#,HF,BasisUnspecified,\\0,1\Cl\C,1,1.73093\C,2,1.39121,1,119.398\H,3,1.08039,2,119.798,1,0,0\C,2,1.39121,1,119.398,3,-180,0\H,5,1.08039,2,119.798,1,0,0\C,3,1.39191,2,119.079,1,-180,0\H,7,1.08135,3,119.367,2,180,0\C,5,1.39191,2,119.079,1,180,0\H,9,1.08135,5,119.367,2,-180,0\C,7,1.39245,3,120.451,2,0,0\H,11,1.08085,7,120.132,3,-180,0\\HF=-689.682395\\@

 Total job time:  57.74s(wall), 55.55s(cpu) 
 Sat Oct 20 07:31:15 2018

        *************************************************************
        *                                                           *
        *  Thank you very much for using Q-Chem.  Have a nice day.  *
        *                                                           *
        *************************************************************


