Q-Chem Developer Version!
                  Welcome to Q-Chem
     A Quantum Leap Into The Future Of Chemistry


 Q-Chem 5.1, Q-Chem, Inc., Pleasanton, CA (2018)

 Yihan Shao,  Zhengting Gan,  E. Epifanovsky,  A. T. B. Gilbert,  M. Wormit,  
 J. Kussmann,  A. W. Lange,  A. Behn,  Jia Deng,  Xintian Feng,  D. Ghosh,  
 M. Goldey,  P. R. Horn,  L. D. Jacobson,  I. Kaliman,  T. Kus,  A. Landau,  
 Jie Liu,  E. I. Proynov,  R. M. Richard,  R. P. Steele,  E. J. Sundstrom,  
 H. L. Woodcock III,  P. M. Zimmerman,  D. Zuev,  B. Albrecht,  E. Alguire,  
 S. A. Baeppler,  D. Barton,  Z. Benda,  Y. A. Bernard,  E. J. Berquist,  
 K. B. Bravaya,  H. Burton,  D. Casanova,  Chun-Min Chang,  Yunqing Chen,  
 A. Chien,  K. D. Closser,  M. P. Coons,  S. Coriani,  S. Dasgupta,  
 A. L. Dempwolff,  M. Diedenhofen,  Hainam Do,  R. G. Edgar,  Po-Tung Fang,  
 S. Faraji,  S. Fatehi,  Qingguo Feng,  K. D. Fenk,  J. Fosso-Tande,  
 Qinghui Ge,  A. Ghysels,  G. Gidofalvi,  J. Gomes,  J. Gonthier,  A. Gunina,  
 D. Hait,  M. W. D. Hanson-Heine,  P. H. P. Harbach,  A. W. Hauser,  
 J. E. Herr,  E. G. Hohenstein,  Z. C. Holden,  Kerwin Hui,  B. C. Huynh,  
 T.-C. Jagau,  Hyunjun Ji,  B. Kaduk,  K. Khistyaev,  Jaehoon Kim,  
 P. Klunzinger,  K. Koh,  D. Kosenkov,  L. Koulias,  T. Kowalczyk,  
 C. M. Krauter,  A. Kunitsa,  Ka Un Lao,  A. Laurent,  K. V. Lawler,  
 Joonho Lee,  D. Lefrancois,  S. Lehtola,  D. S. Levine,  Yi-Pei Li,  
 You-Sheng Lin,  Fenglai Liu,  E. Livshits,  A. Luenser,  P. Manohar,  
 E. Mansoor,  S. F. Manzer,  Shan-Ping Mao,  Yuezhi Mao,  N. Mardirossian,  
 A. V. Marenich,  T. Markovich,  L. A. Martinez-Martinez,  S. A. Maurer,  
 N. J. Mayhall,  S. C. McKenzie,  J.-M. Mewes,  A. F. Morrison,  
 J. W. Mullinax,  K. Nanda,  T. S. Nguyen-Beck,  R. Olivares-Amaya,  
 J. A. Parkhill,  T. M. Perrine,  F. Plasser,  P. Pokhilko,  S. Prager,  
 A. Prociuk,  E. Ramos,  D. R. Rehn,  F. Rob,  M. Schneider,  N. Sergueev,  
 S. M. Sharada,  S. Sharma,  D. W. Small,  T. Stauch,  T. Stein,  
 Yu-Chuan Su,  A. J. W. Thom,  A. Tkatchenko,  T. Tsuchimochi,  N. M. Tubman,  
 L. Vogt,  M. L. Vidal,  O. Vydrov,  M. A. Watson,  J. Wenzel,  
 M. de Wergifosse,  T. A. Wesolowski,  A. White,  J. Witte,  A. Yamada,  
 Jun Yang,  K. Yao,  S. Yeganeh,  S. R. Yost,  Zhi-Qiang You,  A. Zech,  
 Igor Ying Zhang,  Xing Zhang,  Yan Zhao,  Ying Zhu,  B. R. Brooks,  
 G. K. L. Chan,  C. J. Cramer,  M. S. Gordon,  W. J. Hehre,  A. Klamt,  
 M. W. Schmidt,  C. D. Sherrill,  D. G. Truhlar,  A. Aspuru-Guzik,  R. Baer,  
 A. T. Bell,  N. A. Besley,  Jeng-Da Chai,  A. E. DePrince, III,  
 R. A. DiStasio Jr.,  A. Dreuw,  B. D. Dunietz,  T. R. Furlani,  
 Chao-Ping Hsu,  Yousung Jung,  Jing Kong,  D. S. Lambrecht,  WanZhen Liang,  
 C. Ochsenfeld,  V. A. Rassolov,  L. V. Slipchenko,  J. E. Subotnik,  
 T. Van Voorhis,  J. M. Herbert,  A. I. Krylov,  P. M. W. Gill,  M. Head-Gordon

 Contributors to earlier versions of Q-Chem not listed above: 
 R. D. Adamson,  B. Austin,  J. Baker,  G. J. O. Beran,  K. Brandhorst,  
 S. T. Brown,  E. F. C. Byrd,  A. K. Chakraborty,  C.-L. Cheng,  
 Siu Hung Chien,  D. M. Chipman,  D. L. Crittenden,  H. Dachsel,  
 R. J. Doerksen,  A. D. Dutoi,  L. Fusti-Molnar,  W. A. Goddard III,  
 A. Golubeva-Zadorozhnaya,  S. R. Gwaltney,  G. Hawkins,  A. Heyden,  
 S. Hirata,  G. Kedziora,  F. J. Keil,  C. Kelley,  Jihan Kim,  R. A. King,  
 R. Z. Khaliullin,  P. P. Korambath,  W. Kurlancheek,  A. M. Lee,  M. S. Lee,  
 S. V. Levchenko,  Ching Yeh Lin,  D. Liotard,  R. C. Lochan,  I. Lotan,  
 P. E. Maslen,  N. Nair,  D. P. O'Neill,  D. Neuhauser,  E. Neuscamman,  
 C. M. Oana,  R. Olson,  B. Peters,  R. Peverati,  P. A. Pieniazek,  
 Y. M. Rhee,  J. Ritchie,  M. A. Rohrdanz,  E. Rosta,  N. J. Russ,  
 H. F. Schaefer III,  N. E. Schultz,  N. Shenvi,  A. C. Simmonett,  A. Sodt,  
 D. Stuck,  K. S. Thanthiriwatte,  V. Vanovschi,  Tao Wang,  A. Warshel,  
 C. F. Williams,  Q. Wu,  X. Xu,  W. Zhang

 Please cite Q-Chem as follows:
 Y. Shao et al., Mol. Phys. 113, 184-215 (2015)
 DOI: 10.1080/00268976.2014.952696

 Q-Chem 5.1.1 for Intel X86 EM64T Linux

 Parts of Q-Chem use Armadillo 8.300.2 (Tropical Shenanigans).
 http://arma.sourceforge.net/

 Q-Chem begins on Fri Dec  7 06:16:12 2018  


Host: 0

     Scratch files written to /work1/malop/qc_7505169.hnode2//
Input Ideriv = 0
Curr. Ideriv = -1
Max.  Ideriv = 0

Checking the input file for inconsistencies... 	...done.

--------------------------------------------------------------
User input:
--------------------------------------------------------------
$commen
RI-MP2/cc-pVTZ optimized geometry for neutral species 
NEXAFS
basis = 6-311(2+,+)G** (ucC)
$end

$molecule
+1 2
 H        -2.1400320233    0.0000000000    0.5090177858
 C        -1.2120583232    0.0000000000   -0.0442490642
 C        -1.2042956497    0.0000000000   -1.4361358281
 H        -2.1437187877    0.0000000000   -1.9716770234
 C         0.0000000000    0.0000000000   -2.1351330277
 H         0.0000000000    0.0000000000   -3.2159870334
 C         1.2042956497    0.0000000000   -1.4361358281
 H         2.1437187877    0.0000000000   -1.9716770234
 C         1.2120583232    0.0000000000   -0.0442490642
 H         2.1400320233    0.0000000000    0.5090177858
 C         0.0000000000    0.0000000000    0.6386615242
 Cl        0.0000000000    0.0000000000    2.3695929760
$end

$rem
   JOB_TYPE  =  SP
   BASIS  =  general
   METHOD  =  EOM-CCSD
   CVS_EE_STATES = [10,10,10,10]
   eom_preconv_singles = true
   n_frozen_core = 7
   cc_trans_prop = true
   use_libqints = 1   !use new int library (will be def in trunk)
   cc_memory = 100000
   EOM_DAVIDSON_MAX_ITER 200
   EOM_DAVIDSON_MAXVECTORS = 1000
   eom_davidson_convergence = 4
   eom_shift = 10000
$end

$basis
H    0
6-311(2+,+)G**
****
Cl   0
6-311(2+,+)G**
****
C    0
S    1    1.000000
   4.56324000E+03    1.96665000E-03
S    1    1.000000
   6.82024000E+02    1.52306000E-02
S    1    1.000000
   1.54973000E+02    7.61269000E-02
S    1    1.000000
   4.44553000E+01    2.60801000E-01
S    1    1.000000
   1.30290000E+01    6.16462000E-01
S    1    1.000000
   1.82773000E+00    2.21006000E-01
SP   3    1.000000
   2.09642000E+01    1.14660000E-01   4.02487000E-02
   4.80331000E+00    9.19999000E-01   2.37594000E-01
   1.45933000E+00   -3.03068000E-03   8.15854000E-01
SP   1    1.000000
   4.83456000E-01    1.00000000E+00   1.00000000E+00
SP   1    1.000000
   1.45585000E-01    1.00000000E+00   1.00000000E+00
SP   1    1.000000
   4.38000000E-02    1.00000000E+00   1.00000000E+00
SP   1    1.000000
   1.31927711E-02    1.00000000E+00   1.00000000E+00
D    1    1.000000
   6.26000000E-01    1.00000000E+00
****
end

--------------------------------------------------------------

 Q-Chem warning in module forms1/BasisType.C, line 1761:

 Setting pure/cartesian flag to 2111 for general basis


 Requested basis set is non-standard
 There are 111 shells and 255 basis functions
MEM_TOTAL is adjusted to CC_MEMORY + MEM_STATIC!
 Total memory of 100192MB is distributed as follows: 
   QALLOC including MEM_STATIC uses 192MB
   MEM_STATIC is set to 192MB
   CCMAN JOB total memory use is  100000MB
 Warning: actual memory use might exceed 100192MB

 Total QAlloc Memory Limit    192 MB
 Mega-Array Size       188 MB
 MEM_STATIC part       192 MB
 ----------------------------------------------------------------
             Standard Nuclear Orientation (Angstroms)
    I     Atom           X                Y                Z
 ----------------------------------------------------------------
    1      H      -2.1400320233     0.0000000000     0.3814604176
    2      C      -1.2120583232     0.0000000000    -0.1718064324
    3      C      -1.2042956497     0.0000000000    -1.5636931963
    4      H      -2.1437187877     0.0000000000    -2.0992343916
    5      C      -0.0000000000     0.0000000000    -2.2626903959
    6      H      -0.0000000000     0.0000000000    -3.3435444016
    7      C       1.2042956497     0.0000000000    -1.5636931963
    8      H       2.1437187877     0.0000000000    -2.0992343916
    9      C       1.2120583232    -0.0000000000    -0.1718064324
   10      H       2.1400320233    -0.0000000000     0.3814604176
   11      C       0.0000000000    -0.0000000000     0.5111041560
   12      Cl      0.0000000000    -0.0000000000     2.2420356078
 ----------------------------------------------------------------
 Molecular Point Group                 C2v   NOp =  4
 Largest Abelian Subgroup              C2v   NOp =  4
 Nuclear Repulsion Energy =   316.4076139427 hartrees
 There are       29 alpha and       28 beta electrons

                       Distance Matrix (Angstroms)
             H (  1)   C (  2)   C (  3)   H (  4)   C (  5)   H (  6)
   C (  2)  1.080389
   C (  3)  2.158524  1.391908
   H (  4)  2.480698  2.140787  1.081351
   C (  5)  3.401657  2.416791  1.392453  2.149941
   H (  6)  4.295975  3.395439  2.148999  2.478677  1.080854
   C (  7)  3.868869  2.788569  2.408591  3.390576  1.392453  2.148999
   H (  8)  4.950189  3.869912  3.390576  4.287438  2.149941  2.478677
   C (  9)  3.397442  2.424117  2.788569  3.869912  2.416791  3.395439
   H ( 10)  4.280064  3.397442  3.868869  4.950189  3.401657  4.295975
   C ( 11)  2.143955  1.391205  2.398981  3.377780  2.773795  3.854649
   Cl( 12)  2.835750  2.701059  3.991729  4.841710  4.504726  5.585580
             C (  7)   H (  8)   C (  9)   H ( 10)   C ( 11)
   H (  8)  1.081351
   C (  9)  1.391908  2.140787
   H ( 10)  2.158524  2.480698  1.080389
   C ( 11)  2.398981  3.377780  1.391205  2.143955
   Cl( 12)  3.991729  4.841710  2.701059  2.835750  1.730931

 A cutoff of  1.0D-14 yielded   5292 shell pairs
 There are     31225 function pairs (     33033 Cartesian)

 -------------------------------------------------------
 OpenMP Integral Computing Module                       
 Release: version 1.0, May 2013, Q-Chem Inc. Pittsburgh 
 -------------------------------------------------------
 Integral Job Info:
 Integral job number is                      11
 Integral operator is                         1
 short-range coefficients                     0
 long-range coefficients              100000000
 Omega coefficients                           0
 if combine SR and LR in K                    0
 Integral screening is                        0
 Integral computing path is                   2
 max size of driver memory is            800000
 size of driver memory is                593474
 size of scratch memory is              8114252
 max col of scratch BK array               1296
 max len of scratch array in speh3          155
 max len of scratch index in speh4           18
 max int batch size is                      520
 min int batch size is                       52
 fixed nKL is                                52
 max L of basis functions is                  2
 order of int derivative is                   0
 number of shells is                        111
 number of basis is                         262
 number of cartesian basis is               262
 number of contracted shell pairs          5292
 number of primitive shell pairs           7807
 maxK2 (contraction) of shell pair           36
 max number of K2 of shell pair               1
 max number of CS2 of shell pair           1511
 max number of PS2 of shell pair           1511
 mem total for path MDJ                  543004
 -------------------------------------------------------
 Smallest overlap matrix eigenvalue = 1.05E-08
 Linear dependence detected in AO basis
 Tighter screening thresholds may be required for diffuse basis sets
 Use S2THRESH > 14 and THRESH = 14 in case of SCF convergence issues
 Number of orthogonalized atomic orbitals = 248
 Maximum deviation from orthogonality = 5.080E-11

 Scale SEOQF with 1.000000e-01/1.000000e-01/1.000000e-01

 Standard Electronic Orientation quadrupole field applied
 Nucleus-field energy     =    -0.0000000161 hartrees
 Guess MOs from core Hamiltonian diagonalization

 -----------------------------------------------------------------------
  General SCF calculation program by
  Eric Jon Sundstrom, Paul Horn, Yuezhi Mao, Dmitri Zuev, Alec White,
  David Stuck, Shaama M.S., Shane Yost, Joonho Lee, David Small,
  Daniel Levine, Susi Lehtola, Hugh Burton, Evgeny Epifanovsky
 -----------------------------------------------------------------------
 Hartree-Fock
 A unrestricted SCF calculation will be
 performed using DIIS
 SCF converges when DIIS error is below 1.0e-08
 ---------------------------------------
  Cycle       Energy         DIIS error
 ---------------------------------------
    1    -586.0636104668      7.07e-02  
    2    -445.0423635159      5.20e-02  
    3    -556.8579757425      4.75e-02  
    4    -657.3392731913      2.74e-02  
    5    -657.9862183147      3.17e-02  
    6    -688.1826244972      7.25e-03  
    7    -689.1827555998      2.04e-03  
    8    -689.3590384365      5.51e-04  
    9    -689.3712614954      1.76e-04  
   10    -689.3738718756      8.99e-05  
   11    -689.3749992297      5.11e-05  
   12    -689.3754577993      3.10e-05  
   13    -689.3756586416      1.93e-05  
   14    -689.3757710508      1.42e-05  
   15    -689.3758365130      1.16e-05  
   16    -689.3759040024      8.56e-06  
   17    -689.3759700042      4.08e-06  
   18    -689.3759812994      1.67e-06  
   19    -689.3759822123      6.77e-07  
   20    -689.3759823320      2.25e-07  
   21    -689.3759823396      9.66e-08  
   22    -689.3759823411      3.60e-08  
   23    -689.3759823413      1.05e-08  
   24    -689.3759823413      3.89e-09  Convergence criterion met
 ---------------------------------------
 SCF time:   CPU 519.40s  wall 55.00s 
<S^2> =          0.876354216
 SCF   energy in the final basis set =     -689.3759823413
 Total energy in the final basis set =     -689.3759823413


 ------------------------------------------------------------------------------

   CCMAN2: suite of methods based on coupled cluster
           and equation of motion theories.

   Components:
   * libvmm-1.3-trunk
     by Evgeny Epifanovsky, Ilya Kaliman.
   * libtensor-2.5-trunk
     by Evgeny Epifanovsky, Michael Wormit, Dmitry Zuev, Sam Manzer, 
        Ilya Kaliman.
   * libcc-2.5-trunk
     by Evgeny Epifanovsky, Arik Landau, Tomasz Kus, Kirill Khistyaev, 
        Dmitry Zuev, Prashant Manohar, Xintian Feng, Anna Krylov, 
        Matthew Goldey, Alec White, Thomas Jagau, Kaushik Nanda, 
        Anastasia Gunina, Alexander Kunitsa, Joonho Lee.

   CCMAN original authors:
   Anna I. Krylov, C. David Sherrill, Steven R. Gwaltney,
   Edward F. C. Byrd (2000)
   Sergey V. Levchenko, Lyudmila V. Slipchenko, Tao Wang,
   Ana-Maria C. Cristian (2003)
   Piotr A. Pieniazek, C. Melania Oana, Evgeny Epifanovsky (2007)
   Prashant Manohar (2009)

 ------------------------------------------------------------------------------


 Allocating and initializing 100000MB of RAM...
 Calculation will run on 10 cores.


 Alpha MOs, Unrestricted
 -- Occupied --                  
-105.01  -11.51  -11.51  -11.50  -11.50  -11.50  -11.45  -10.73
  1 A1    2 A1    1 B1    3 A1    2 B1    4 A1    5 A1    6 A1                 
 -8.202  -8.198  -8.197  -1.425  -1.319  -1.296  -1.208  -1.081
  7 A1    3 B1    1 B2    8 A1    9 A1    4 B1   10 A1    5 B1                 
 -1.049  -0.934  -0.882  -0.869  -0.842  -0.788  -0.778  -0.740
 11 A1   12 A1    6 B1   13 A1    7 B1   14 A1    2 B2    8 B1                 
 -0.722  -0.653  -0.637  -0.625  -0.537
 15 A1    3 B2    1 A2    9 B1    4 B2                                         
 -- Virtual --                   
 -0.145  -0.090  -0.088  -0.075  -0.069  -0.067  -0.056  -0.050
  2 A2   16 A1    5 B2   10 B1    6 B2   17 A1   18 A1   11 B1                 
 -0.049  -0.047  -0.042  -0.032  -0.027  -0.026  -0.026  -0.023
  3 A2   19 A1    7 B2   20 A1   12 B1   13 B1   21 A1    4 A2                 
 -0.023  -0.022  -0.018  -0.018  -0.013  -0.009  -0.005  -0.003
  8 B2   22 A1    9 B2   23 A1   14 B1   24 A1   15 B1   10 B2                 
 -0.002   0.002   0.002   0.012   0.018   0.021   0.034   0.037
 25 A1   16 B1   26 A1   17 B1   27 A1   11 B2   28 A1    5 A2                 
  0.043   0.048   0.049   0.069   0.070   0.074   0.075   0.082
 29 A1   18 B1   12 B2   30 A1   13 B2   31 A1   19 B1    6 A2                 
  0.090   0.092   0.098   0.101   0.107   0.110   0.112   0.120
 32 A1   20 B1   14 B2   21 B1   15 B2   33 A1   22 B1   34 A1                 
  0.129   0.131   0.146   0.148   0.152   0.156   0.164   0.178
 35 A1   23 B1   36 A1   24 B1   37 A1   16 B2   38 A1   25 B1                 
  0.201   0.209   0.237   0.240   0.248   0.251   0.259   0.310
 26 B1   39 A1   40 A1   27 B1   41 A1   28 B1   42 A1   43 A1                 
  0.328   0.339   0.341   0.444   0.450   0.473   0.495   0.504
 29 B1   30 B1   44 A1   45 A1   31 B1   32 B1   46 A1   17 B2                 
  0.522   0.524   0.528   0.544   0.549   0.552   0.592   0.602
 47 A1   33 B1   18 B2   34 B1    7 A2   48 A1   19 B2    8 A2                 
  0.609   0.611   0.636   0.682   0.692   0.701   0.735   0.735
 49 A1   35 B1   20 B2   21 B2   50 A1   51 A1   36 B1   52 A1                 
  0.750   0.775   0.816   0.838   0.845   0.862   0.872   0.877
 37 B1   53 A1   38 B1   54 A1   55 A1   39 B1   22 B2   56 A1                 
  0.888   0.898   0.930   0.964   0.974   0.985   1.005   1.009
 40 B1   57 A1   41 B1    9 A2   58 A1   42 B1   10 A2   23 B2                 
  1.048   1.069   1.098   1.127   1.154   1.249   1.274   1.293
 59 A1   11 A2   60 A1   24 B2   12 A2   61 A1   62 A1   43 B1                 
  1.370   1.461   1.510   1.551   1.561   1.611   1.612   1.638
 25 B2   63 A1   44 B1   64 A1   45 B1   13 A2   26 B2   65 A1                 
  1.682   1.694   1.698   1.756   1.774   1.801   1.816   1.893
 27 B2   46 B1   66 A1   67 A1   47 B1   28 B2   14 A2   48 B1                 
  1.955   1.973   1.996   2.003   2.024   2.031   2.071   2.103
 68 A1   29 B2   15 A2   49 B1   50 B1   69 A1   30 B2   70 A1                 
  2.131   2.132   2.180   2.360   2.401   2.412   2.516   2.538
 16 A2   51 B1   71 A1   31 B2   52 B1   17 A2   32 B2   72 A1                 
  2.571   2.595   2.608   2.664   2.706   2.737   2.771   2.801
 53 B1   73 A1   54 B1   55 B1   74 A1   75 A1   76 A1   77 A1                 
  2.802   2.825   2.828   2.839   2.844   2.941   2.973   2.989
 56 B1   78 A1   33 B2   57 B1   79 A1   18 A2   34 B2   58 B1                 
  2.996   3.029   3.071   3.091   3.237   3.336   3.430   3.537
 80 A1   19 A2   35 B2   59 B1   36 B2   60 B1   81 A1   61 B1                 
  3.541   3.667   3.695   3.798   3.964   4.150   4.227   4.274
 82 A1   62 B1   83 A1   84 A1   85 A1   63 B1   86 A1   87 A1                 
  4.287   4.892   5.026   5.207   5.217   5.531   5.534   5.953
 64 B1   88 A1   65 B1   66 B1   89 A1   67 B1   90 A1   91 A1                 
 10.379  20.407  20.459  20.478  20.603  20.605  20.891  26.631
 92 A1   93 A1   68 B1   94 A1   69 B1   95 A1   96 A1   37 B2                 
 26.892  27.354  79.974  80.035  80.048  80.158  80.162  80.381
 70 B1   97 A1   98 A1   71 B1   99 A1   72 B1  100 A1  101 A1                 
219.244 321.816 321.873 321.883 321.978 321.982 322.1591431.385
102 A1  103 A1   73 B1  104 A1   74 B1  105 A1  106 A1  107 A1                 
*******1431.4441431.5251431.5301431.6788749.6238749.6668749.672
 75 B1  108 A1   76 B1  109 A1  110 A1  111 A1   77 B1  112 A1                 
*******8749.7458749.864
 78 B1  113 A1  114 A1                                                         

 Beta MOs, Unrestricted
 -- Occupied --                  
-105.01  -11.51  -11.50  -11.50  -11.49  -11.49  -11.46  -10.73
  1 A1    2 A1    3 A1    1 B1    2 B1    4 A1    5 A1    6 A1                 
 -8.201  -8.199  -8.198  -1.406  -1.319  -1.242  -1.206  -1.060
  7 A1    1 B2    3 B1    8 A1    9 A1    4 B1   10 A1    5 B1                 
 -1.043  -0.930  -0.876  -0.864  -0.833  -0.789  -0.738  -0.722
 11 A1   12 A1    6 B1   13 A1    7 B1   14 A1    8 B1    2 B2                 
 -0.719  -0.639  -0.624  -0.548
 15 A1    3 B2    9 B1    4 B2                                                 
 -- Virtual --                   
 -0.260  -0.090  -0.079  -0.074  -0.067  -0.060  -0.055  -0.053
  1 A2   16 A1    5 B2   10 B1   17 A1    6 B2   18 A1    2 A2                 
 -0.050  -0.047  -0.047  -0.041  -0.032  -0.027  -0.026  -0.026
 11 B1   19 A1    3 A2    7 B2   20 A1   12 B1   21 A1   13 B1                 
 -0.023  -0.022  -0.019  -0.018  -0.018  -0.013  -0.009  -0.005
  8 B2   22 A1    4 A2    9 B2   23 A1   14 B1   24 A1   15 B1                 
 -0.003  -0.003   0.002   0.003   0.013   0.017   0.029   0.036
 10 B2   25 A1   16 B1   26 A1   17 B1   27 A1   11 B2   28 A1                 
  0.041   0.047   0.047   0.048   0.068   0.075   0.083   0.084
 29 A1   12 B2    5 A2   18 B1   30 A1   31 A1   19 B1   13 B2                 
  0.091   0.093   0.098   0.102   0.103   0.104   0.110   0.114
 32 A1   20 B1    6 A2   14 B2   21 B1   15 B2   33 A1   22 B1                 
  0.121   0.129   0.131   0.148   0.150   0.152   0.164   0.178
 34 A1   35 A1   23 B1   36 A1   24 B1   37 A1   38 A1   25 B1                 
  0.183   0.201   0.213   0.239   0.242   0.247   0.261   0.267
 16 B2   26 B1   39 A1   40 A1   27 B1   41 A1   42 A1   28 B1                 
  0.313   0.332   0.341   0.342   0.445   0.452   0.475   0.500
 43 A1   29 B1   44 A1   30 B1   45 A1   31 B1   32 B1   46 A1                 
  0.507   0.534   0.545   0.549   0.552   0.557   0.587   0.591
 17 B2   47 A1   33 B1   18 B2   48 A1   34 B1    7 A2   19 B2                 
  0.613   0.614   0.629   0.636   0.695   0.696   0.703   0.737
 35 B1   49 A1   20 B2    8 A2   21 B2   50 A1   51 A1   52 A1                 
  0.739   0.754   0.777   0.823   0.838   0.847   0.869   0.877
 36 B1   37 B1   53 A1   38 B1   54 A1   55 A1   39 B1   22 B2                 
  0.878   0.897   0.900   0.932   0.969   0.980   0.990   1.021
 56 A1   40 B1   57 A1   41 B1    9 A2   58 A1   42 B1   23 B2                 
  1.026   1.048   1.096   1.100   1.145   1.163   1.255   1.278
 10 A2   59 A1   60 A1   11 A2   24 B2   12 A2   61 A1   62 A1                 
  1.295   1.379   1.469   1.513   1.557   1.571   1.619   1.620
 43 B1   25 B2   63 A1   44 B1   64 A1   45 B1   13 A2   26 B2                 
  1.637   1.682   1.698   1.705   1.756   1.787   1.804   1.830
 65 A1   27 B2   66 A1   46 B1   67 A1   47 B1   28 B2   14 A2                 
  1.896   1.957   1.996   2.002   2.009   2.029   2.029   2.076
 48 B1   68 A1   29 B2   15 A2   49 B1   69 A1   50 B1   30 B2                 
  2.106   2.138   2.148   2.182   2.368   2.407   2.424   2.516
 70 A1   51 B1   16 A2   71 A1   31 B2   52 B1   17 A2   32 B2                 
  2.537   2.574   2.595   2.610   2.665   2.710   2.738   2.773
 72 A1   53 B1   73 A1   54 B1   55 B1   74 A1   75 A1   76 A1                 
  2.802   2.803   2.826   2.840   2.844   2.846   2.971   2.974
 77 A1   56 B1   78 A1   57 B1   79 A1   33 B2   18 A2   34 B2                 
  2.990   2.997   3.061   3.066   3.096   3.248   3.340   3.427

 Occupation and symmetry of molecular orbitals

 Point group: C2v (4 irreducible representations).

                           A1   A2   B1   B2    All 
 ----------------------------------------------------
 All molecular orbitals:
  - Alpha                  114  19   78   37    248 
  - Beta                   114  19   78   37    248 
 ----------------------------------------------------
 Alpha orbitals:
  - Frozen occupied        5    0    2    0     7   
  - Active occupied        10   1    7    4     22  
  - Active virtual         99   18   69   33    219 
  - Frozen virtual         0    0    0    0     0   
 ----------------------------------------------------
 Beta orbitals:
  - Frozen occupied        5    0    2    0     7   
  - Active occupied        10   0    7    4     21  
  - Active virtual         99   19   69   33    220 
  - Frozen virtual         0    0    0    0     0   
 ----------------------------------------------------

 Import integrals:   CPU 0.00 s  wall 0.00 s

 Import integrals:   CPU 2796.00 s  wall 3413.02 s

 MP2 amplitudes:   CPU 19.70 s  wall 2.62 s

Running a double precision version
           CCSD T amplitudes will be solved using DIIS.

           Start     Size      MaxIter   EConv     TConv     
           3         7         100       1.00e-06  1.00e-04  
 ------------------------------------------------------------------------------
           Energy (a.u.)   Ediff      Tdiff       Comment
 ------------------------------------------------------------------------------
          -690.32190836                           
     1    -690.33983028   1.79e-02   9.45e-01     Step took 01.41.
     2    -690.36785894   2.80e-02   1.17e-01     
     3    -690.36988051   2.02e-03   4.31e-02     
     4    -690.37329756   3.42e-03   1.48e-02     Switched to DIIS steps.
     5    -690.37501999   1.72e-03   1.42e-02     
     6    -690.37526033   2.40e-04   4.15e-03     
     7    -690.37531158   5.12e-05   2.11e-03     
     8    -690.37533291   2.13e-05   6.20e-04     
     9    -690.37534072   7.80e-06   2.78e-04     
    10    -690.37534181   1.10e-06   1.18e-04     
    11    -690.37534167   1.40e-07   8.68e-05     
 ------------------------------------------------------------------------------
          -690.37534167                           CCSD T converged.

End of double precision
 SCF energy                 = -689.37598234
 MP2 energy                 = -690.32190836
 CCSD correlation energy     =   -0.99935933
 CCSD total energy           = -690.37534167

 CCSD  T1^2 = 0.0305  T2^2 = 0.3787  Leading amplitudes:

 Amplitude    Orbitals with energies
  0.0574       3 (B2) B                  ->    5 (B2) B                   
              -0.6388                         -0.0793                     
 -0.0531       3 (B2) B                  ->    6 (B2) B                   
              -0.6388                         -0.0598                     
 -0.0499       4 (B2) B                  ->    16 (B2) B                  
              -0.5482                          0.1829                     
 -0.0463       2 (B2) B                  ->    5 (B2) B                   
              -0.7223                         -0.0793                     

 Amplitude    Orbitals with energies
 -0.0445       1 (A2) A      3 (B2) B    ->    5 (B2) A      1 (A2) B     
              -0.6375       -0.6388           -0.0880       -0.2597       
  0.0445       1 (A2) A      3 (B2) B    ->    1 (A2) B      5 (B2) A     
              -0.6375       -0.6388           -0.2597       -0.0880       
  0.0445       3 (B2) B      1 (A2) A    ->    5 (B2) A      1 (A2) B     
              -0.6388       -0.6375           -0.0880       -0.2597       
 -0.0445       3 (B2) B      1 (A2) A    ->    1 (A2) B      5 (B2) A     
              -0.6388       -0.6375           -0.2597       -0.0880       

 Computing CCSD intemediates for later calculations in double precision
 Finished.

Running a double precision version
           CCSD Lambda amplitudes will be solved using DIIS.
           Start     Size      MaxIter   EConv     LConv     
           3         7         100       1.00e-06  1.00e-04  
 ------------------------------------------------------------------------------
            Enorm      Ldiff       Comment
 ------------------------------------------------------------------------------
     1     5.98e-02   4.74e-02     
     2     1.23e-02   3.26e-03     
     3     5.42e-03   2.15e-03     
     4     2.81e-03   9.63e-04     Switched to DIIS steps.
     5     9.97e-04   6.18e-04     
     6     4.51e-04   1.95e-04     
     7     1.59e-04   6.43e-05     
     8     7.21e-05   1.24e-05     
     9     2.80e-05   3.19e-06     
    10     1.40e-05   2.67e-07     
    11     6.95e-06   4.61e-07     
    12     3.66e-06   4.63e-07     
    13     1.62e-06   4.93e-07     
    14     6.89e-07   2.10e-07     
 ------------------------------------------------------------------------------
                                   CCSD Lambda converged.

 CCSD calculation:   CPU 15893.77 s  wall 1749.09 s

        Solving for CVS-EOMEE-CCSD A1 transitions.

       EOMEE-CCSD-SINGLES right amplitudes will be solved using Davidson.
        Amplitudes will be solved using shifted  algorithm.
     Hard-coded thresholds: 
     LinDepThresh=1.00e-15  NormThresh=1.00e-06  ReorthogonThresh=1.00e-02

      Roots     MaxVec    MaxIter   Precond   Conv      Shift    
      10        1000      200       1         1.00e-04  1.00e+01  
 ------------------------------------------------------------------------------
      Iter ConvRoots NVecs ResNorm Current eigenvalues (eV)
 ------------------------------------------------------------------------------
      0    0      10    4.03e-03   304.9298   305.0722   306.1824   306.3395   306.3613   306.5382   306.8616   307.0294   307.8648   307.9881   
      1    0      20    3.46e-01   304.2909   304.4925   304.9532   305.1255   306.2104   306.4233   306.5485   306.6982   307.4078   307.5307   
      2    0      30    4.95e-02   300.8231   302.0880   303.4650   303.9465   304.2241   304.5123   305.7229   306.0067   306.7682   306.9341   
      3    0      40    7.30e-02   300.2749   301.7958   301.8638   302.1514   303.4839   304.4449   304.8889   305.7091   306.4142   306.4347   
      4    0      50    7.11e-02   300.2569   301.2293   301.3811   301.8578   303.1023   304.3778   304.4312   304.7651   305.2829   305.5481   
      5    1      60    1.34e-01   300.2565*  300.9792   301.1336   301.8574   302.8125   303.0932   304.2323   304.4208   304.7441   305.4852   
      6    1      69    1.78e+00   300.2564*  300.8732   300.9103   301.8572   302.5131   302.6451   303.0922   303.2955   304.4209   304.6803   
      7    1      78    5.48e-01   298.5108   300.2564*  300.5968   300.9011   301.0940   301.8573   302.5654   303.0900   303.0935   304.3343   
Rerun orthogonalization...
      8    3      87    8.81e-02   297.7697   300.1635   300.2564*  300.8998   300.9683   301.8573*  302.5578   302.7039   303.0921*  304.1023   
      9    4      94    2.49e-02   297.7324   300.0886   300.2564*  300.8997*  300.9591   301.8573*  302.5482   302.6026   303.0921*  303.9832   
      10   5      100   4.03e-03   297.7285   300.0857   300.2564*  300.8997*  300.9586*  301.8573*  302.5457   302.5961   303.0921*  303.9448   
      11   6      105   6.38e-04   297.7279   300.0855*  300.2564*  300.8997*  300.9585*  301.8573*  302.5453   302.5953   303.0921*  303.9369   
      12   6      109   4.72e-04   297.7279*  300.0854   300.2564*  300.8997*  300.9585*  301.8573*  302.5451   302.5951   303.0921*  303.9345   
      13   8      113   2.33e-04   297.7279*  300.0854*  300.2564*  300.8997*  300.9585*  301.8573*  302.5450*  302.5950   303.0921*  303.9334   
      14   9      115   3.49e-04   297.7279*  300.0854*  300.2564*  300.8997*  300.9585*  301.8573*  302.5450*  302.5949*  303.0921*  303.9324   
      15   9      116   5.31e-04   297.7279*  300.0854*  300.2564*  300.8997*  300.9585*  301.8573*  302.5450*  302.5949*  303.0921*  303.9305   
      16   9      117   2.39e-04   297.7279*  300.0854*  300.2564*  300.8997*  300.9585*  301.8573*  302.5450*  302.5949*  303.0921*  303.9294   
      17   9      118   7.11e-05   297.7279*  300.0854*  300.2564*  300.8997*  300.9585*  301.8573*  302.5450*  302.5949*  303.0921*  303.9290   
      18   9      119   1.48e-05   297.7279*  300.0854*  300.2564*  300.8997*  300.9585*  301.8573*  302.5450*  302.5949*  303.0921*  303.9289   
      19   10     120   5.60e-06   297.7279*  300.0854*  300.2564*  300.8997*  300.9585*  301.8573*  302.5450*  302.5949*  303.0921*  303.9289*  

     Davidson procedure converged

        CVS-EOMEE-CCSD/MP2 right amplitudes will be solved using Davidson.
        Amplitudes will be solved using shifted  algorithm.
     Hard-coded thresholds: 
     LinDepThresh=1.00e-15  NormThresh=1.00e-06  ReorthogonThresh=1.00e-02

      Roots     MaxVec    MaxIter   Precond   Conv      Shift    
      10        1000      200       1         1.00e-04  1.00e+01  
 ------------------------------------------------------------------------------
      Iter ConvRoots NVecs ResNorm Current eigenvalues (eV)
 ------------------------------------------------------------------------------
      0    0      10    1.74e+00   297.7279   300.0854   300.2564   300.8997   300.9585   301.8573   302.5450   302.5949   303.0921   303.9289   
      1    0      20    1.62e+01   295.8410   298.1332   298.1365   298.8186   298.8639   299.6321   300.3392   300.3965   300.9646   301.8618   
      2    0      30    3.61e-01   289.2566   290.4397   290.6469   291.0421   291.4565   291.5118   292.0248   292.0700   292.8230   293.6722   
      3    0      40    6.22e-02   288.5819   289.7195   289.9130   290.2871   290.6997   290.7465   291.2460   291.3115   291.9464   292.7030   
      4    0      50    4.02e-02   288.4366   289.5001   289.7269   290.0364   290.4460   290.4830   290.9736   291.0574   291.5943   292.2550   
      5    0      60    1.11e-02   288.4022   289.3882   289.6833   289.9057   290.3197   290.3528   290.8370   290.9305   291.3324   291.9120   
      6    0      70    1.19e-02   288.3893   289.3294   289.6667   289.8291   290.2590   290.2912   290.7645   290.8608   291.1551   291.7131   
      7    0      80    4.73e-03   288.3803   289.2882   289.6513   289.7703   290.2198   290.2524   290.7145   290.8132   290.9666   291.5476   
      8    1      90    3.08e-03   288.3783*  289.2726   289.6466   289.7441   290.2047   290.2383   290.6926   290.7943   290.8702   291.4825   
      9    1      99    3.04e-03   288.3783*  289.2625   289.6455   289.7256   290.1957   290.2303   290.6778   290.7586   290.7819   291.4370   
      10   2      108   1.61e-03   288.3783*  289.2533   289.6439*  289.7075   290.1871   290.2219   290.6640   290.6665   290.7687   291.4075   
      11   2      116   1.72e-03   288.3783*  289.2511   289.6439*  289.6986   290.1842   290.2189   290.6016   290.6579   290.7619   291.3833   
      12   3      124   2.28e-03   288.3783*  289.2503*  289.6439*  289.6919   290.1828   290.2169   290.5724   290.6543   290.7563   291.1490   
      13   4      131   2.76e-03   288.3783*  289.2497*  289.6439*  289.6869   290.1813*  290.2151   290.5523   290.6522   290.7526   290.9956   
      14   6      137   6.63e-04   288.3783*  289.2493*  289.6439*  289.6833   290.1813*  290.2141*  290.5447   290.6507*  290.7502   290.8973   
      15   6      141   7.87e-04   288.3783*  289.2492*  289.6439*  289.6825   290.1813*  290.2141*  290.5375   290.6507*  290.7495   290.8464   
      16   8      145   3.12e-04   288.3783*  289.2492*  289.6439*  289.6823*  290.1813*  290.2141*  290.5339   290.6507*  290.7492*  290.8141   
      17   8      147   2.33e-04   288.3783*  289.2492*  289.6439*  289.6817*  290.1813*  290.2141*  290.5321   290.6507*  290.7492*  290.7897   
      18   8      149   1.89e-04   288.3783*  289.2491*  289.6439*  289.6814*  290.1813*  290.2141*  290.5294   290.6507*  290.7492*  290.7751   
      19   8      151   1.49e-04   288.3783*  289.2491*  289.6439*  289.6815*  290.1813*  290.2141*  290.5293   290.6507*  290.7492*  290.7677   
      20   8      153   1.41e-04   288.3783*  289.2491*  289.6439*  289.6814*  290.1813*  290.2141*  290.5277   290.6507*  290.7492*  290.7571   
      21   9      155   8.96e-05   288.3783*  289.2491*  289.6439*  289.6813*  290.1813*  290.2141*  290.5267*  290.6507*  290.7471   290.7493*  
Found complex roots...
      22   9      156   7.70e-05   288.3783*  289.2491*  289.6439*  289.6813*  290.1813*  290.2141*  290.5269*  290.6507*  290.7466   290.7493*  
      23   9      157   6.89e-05   288.3783*  289.2491*  289.6439*  289.6814*  290.1813*  290.2141*  290.5265*  290.6507*  290.7433   290.7493*  
Found complex roots...
      24   9      158   6.57e-05   288.3783*  289.2490*  289.6439*  289.6813*  290.1813*  290.2141*  290.5262*  290.6507*  290.7390   290.7492*  
      25   9      159   5.22e-05   288.3783*  289.2490*  289.6439*  289.6813*  290.1813*  290.2141*  290.5262*  290.6507*  290.7387   290.7492*  
      26   10     160   4.55e-05   288.3783*  289.2490*  289.6439*  289.6813*  290.1813*  290.2141*  290.5261*  290.6507*  290.7374*  290.7492*  

     Davidson procedure converged

 EOMEE transition 1/A1
 Total energy = -679.77763299 a.u.  Excitation energy = 288.3783 eV.
 R0^2 = 0.0000  R1^2 = 0.8578  R2_CCVV^2 = 0.0016  R2_COVV^2 = 0.0703  Res^2 = 8.67e-05
 Conv-d = yes

 Amplitude    Transitions between orbitals
 -0.3153       2 (A1) B                  ->    29 (A1) B                  
  0.2719       4 (A1) A                  ->    29 (A1) A                  
  0.2657       3 (A1) A                  ->    29 (A1) A                  
  0.2216       2 (A1) B                  ->    27 (A1) B                  
  0.2018       2 (A1) B                  ->    25 (A1) B                  
 -0.1576       2 (A1) B                  ->    23 (A1) B                  
 -0.1556       4 (A1) A                  ->    27 (A1) A                  
  0.1521       2 (A1) B                  ->    38 (A1) B                  
 -0.1516       3 (A1) A                  ->    27 (A1) A                  
 -0.1471       4 (A1) A                  ->    25 (A1) A                  
 -0.1432       3 (A1) A                  ->    25 (A1) A                  
  0.1427       2 (A1) B                  ->    28 (A1) B                  
 -0.1334       4 (A1) A                  ->    38 (A1) A                  
 -0.1328       2 (A1) B                  ->    20 (A1) B                  
 -0.1312       3 (A1) A                  ->    38 (A1) A                  
  0.1294       2 (A1) B                  ->    30 (A1) B                  
 -0.1177       4 (A1) A                  ->    30 (A1) A                  
  0.1160       4 (A1) A                  ->    23 (A1) A                  
 -0.1151       3 (A1) A                  ->    30 (A1) A                  
  0.1129       3 (A1) A                  ->    23 (A1) A                  
 -0.1069       2 (A1) B                  ->    35 (A1) B                  
 -0.1049       2 (A1) B                  ->    37 (A1) B                  

              Summary of significant orbitals:

               Number  Type             Irrep      Energy
               4       Occ  Alpha       3 (A1)    -11.5046
               6       Occ  Alpha       4 (A1)    -11.5029
               2       Occ  Beta        2 (A1)    -11.5124
               49      Vir  Alpha      23 (A1)     -0.0179
               54      Vir  Alpha      25 (A1)     -0.0023
               58      Vir  Alpha      27 (A1)      0.0176
               62      Vir  Alpha      29 (A1)      0.0435
               65      Vir  Alpha      30 (A1)      0.0687
               84      Vir  Alpha      38 (A1)      0.1637
               41      Vir  Beta       20 (A1)     -0.0319
               49      Vir  Beta       23 (A1)     -0.0179
               54      Vir  Beta       25 (A1)     -0.0025
               58      Vir  Beta       27 (A1)      0.0170
               60      Vir  Beta       28 (A1)      0.0362
               61      Vir  Beta       29 (A1)      0.0411
               65      Vir  Beta       30 (A1)      0.0683
               78      Vir  Beta       35 (A1)      0.1292
               82      Vir  Beta       37 (A1)      0.1518
               83      Vir  Beta       38 (A1)      0.1639


 EOMEE transition 2/A1
 Total energy = -679.74563458 a.u.  Excitation energy = 289.2490 eV.
 R0^2 = 0.0000  R1^2 = 0.8295  R2_CCVV^2 = 0.0016  R2_COVV^2 = 0.0844  Res^2 = 1.82e-05
 Conv-d = yes

 Amplitude    Transitions between orbitals
  0.4647       5 (A1) A                  ->    16 (A1) A                  
  0.3182       5 (A1) B                  ->    16 (A1) B                  
  0.2449       5 (A1) A                  ->    17 (A1) A                  
  0.2063       5 (A1) A                  ->    33 (A1) A                  
 -0.1892       5 (A1) A                  ->    20 (A1) A                  
  0.1827       5 (A1) A                  ->    21 (A1) A                  
  0.1809       5 (A1) B                  ->    17 (A1) B                  
  0.1637       5 (A1) B                  ->    33 (A1) B                  
 -0.1439       5 (A1) A                  ->    23 (A1) A                  
 -0.1374       5 (A1) B                  ->    20 (A1) B                  
  0.1301       5 (A1) B                  ->    21 (A1) B                  
  0.1300       5 (A1) A                  ->    27 (A1) A                  
  0.1213       5 (A1) A                  ->    44 (A1) A                  
 -0.1130       5 (A1) B                  ->    23 (A1) B                  
 -0.1057       5 (A1) A                  ->    24 (A1) A                  
  0.1005       5 (A1) B                  ->    27 (A1) B                  

              Summary of significant orbitals:

               Number  Type             Irrep      Energy
               7       Occ  Alpha       5 (A1)    -11.4496
               7       Occ  Beta        5 (A1)    -11.4553
               31      Vir  Alpha      16 (A1)     -0.0903
               35      Vir  Alpha      17 (A1)     -0.0670
               41      Vir  Alpha      20 (A1)     -0.0320
               44      Vir  Alpha      21 (A1)     -0.0259
               49      Vir  Alpha      23 (A1)     -0.0179
               51      Vir  Alpha      24 (A1)     -0.0089
               58      Vir  Alpha      27 (A1)      0.0176
               75      Vir  Alpha      33 (A1)      0.1100
               96      Vir  Alpha      44 (A1)      0.3411
               30      Vir  Beta       16 (A1)     -0.0896
               33      Vir  Beta       17 (A1)     -0.0669
               41      Vir  Beta       20 (A1)     -0.0319
               43      Vir  Beta       21 (A1)     -0.0258
               49      Vir  Beta       23 (A1)     -0.0179
               58      Vir  Beta       27 (A1)      0.0170
               75      Vir  Beta       33 (A1)      0.1096


 EOMEE transition 3/A1
 Total energy = -679.73112292 a.u.  Excitation energy = 289.6439 eV.
 R0^2 = 0.0000  R1^2 = 0.8396  R2_CCVV^2 = 0.0019  R2_COVV^2 = 0.0792  Res^2 = 8.36e-05
 Conv-d = yes

 Amplitude    Transitions between orbitals
  0.3318       2 (A1) B                  ->    29 (A1) B                  
 -0.2511       2 (A1) B                  ->    27 (A1) B                  
 -0.2410       2 (A1) B                  ->    25 (A1) B                  
  0.2345       4 (A1) A                  ->    29 (A1) A                  
  0.2256       3 (A1) A                  ->    29 (A1) A                  
  0.1907       2 (A1) B                  ->    23 (A1) B                  
  0.1654       2 (A1) B                  ->    20 (A1) B                  
 -0.1523       2 (A1) B                  ->    30 (A1) B                  
 -0.1486       4 (A1) A                  ->    25 (A1) A                  
 -0.1483       4 (A1) A                  ->    27 (A1) A                  
 -0.1462       2 (A1) B                  ->    38 (A1) B                  
 -0.1410       3 (A1) A                  ->    27 (A1) A                  
 -0.1409       3 (A1) A                  ->    25 (A1) A                  
 -0.1383       2 (A1) B                  ->    28 (A1) B                  
  0.1187       4 (A1) A                  ->    23 (A1) A                  
  0.1164       2 (A1) B                  ->    18 (A1) B                  
 -0.1135       4 (A1) A                  ->    30 (A1) A                  
  0.1130       3 (A1) A                  ->    23 (A1) A                  
  0.1109       2 (A1) B                  ->    35 (A1) B                  
 -0.1090       3 (A1) A                  ->    30 (A1) A                  
  0.1051       4 (A1) A                  ->    20 (A1) A                  
 -0.1047       4 (A1) A                  ->    38 (A1) A                  
  0.1034       2 (A1) B                  ->    37 (A1) B                  
 -0.1026       3 (A1) A                  ->    38 (A1) A                  

              Summary of significant orbitals:

               Number  Type             Irrep      Energy
               4       Occ  Alpha       3 (A1)    -11.5046
               6       Occ  Alpha       4 (A1)    -11.5029
               2       Occ  Beta        2 (A1)    -11.5124
               41      Vir  Alpha      20 (A1)     -0.0320
               49      Vir  Alpha      23 (A1)     -0.0179
               54      Vir  Alpha      25 (A1)     -0.0023
               58      Vir  Alpha      27 (A1)      0.0176
               62      Vir  Alpha      29 (A1)      0.0435
               65      Vir  Alpha      30 (A1)      0.0687
               84      Vir  Alpha      38 (A1)      0.1637
               35      Vir  Beta       18 (A1)     -0.0552
               41      Vir  Beta       20 (A1)     -0.0319
               49      Vir  Beta       23 (A1)     -0.0179
               54      Vir  Beta       25 (A1)     -0.0025
               58      Vir  Beta       27 (A1)      0.0170
               60      Vir  Beta       28 (A1)      0.0362
               61      Vir  Beta       29 (A1)      0.0411
               65      Vir  Beta       30 (A1)      0.0683
               78      Vir  Beta       35 (A1)      0.1292
               82      Vir  Beta       37 (A1)      0.1518
               83      Vir  Beta       38 (A1)      0.1639


 EOMEE transition 4/A1
 Total energy = -679.72974887 a.u.  Excitation energy = 289.6813 eV.
 R0^2 = 0.0000  R1^2 = 0.8170  R2_CCVV^2 = 0.0017  R2_COVV^2 = 0.0907  Res^2 = 1.30e-06
 Conv-d = yes

 Amplitude    Transitions between orbitals
  0.5140       5 (A1) B                  ->    16 (A1) B                  
 -0.4074       5 (A1) A                  ->    16 (A1) A                  
  0.2288       5 (A1) B                  ->    17 (A1) B                  
  0.1882       5 (A1) B                  ->    21 (A1) B                  
 -0.1850       5 (A1) B                  ->    20 (A1) B                  
  0.1837       5 (A1) B                  ->    33 (A1) B                  
 -0.1515       5 (A1) A                  ->    17 (A1) A                  
 -0.1476       5 (A1) B                  ->    23 (A1) B                  
 -0.1395       5 (A1) A                  ->    21 (A1) A                  
  0.1320       5 (A1) A                  ->    20 (A1) A                  
 -0.1137       5 (A1) A                  ->    33 (A1) A                  
 -0.1075       5 (A1) B                  ->    32 (A1) B                  

              Summary of significant orbitals:

               Number  Type             Irrep      Energy
               7       Occ  Alpha       5 (A1)    -11.4496
               7       Occ  Beta        5 (A1)    -11.4553
               31      Vir  Alpha      16 (A1)     -0.0903
               35      Vir  Alpha      17 (A1)     -0.0670
               41      Vir  Alpha      20 (A1)     -0.0320
               44      Vir  Alpha      21 (A1)     -0.0259
               75      Vir  Alpha      33 (A1)      0.1100
               30      Vir  Beta       16 (A1)     -0.0896
               33      Vir  Beta       17 (A1)     -0.0669
               41      Vir  Beta       20 (A1)     -0.0319
               43      Vir  Beta       21 (A1)     -0.0258
               49      Vir  Beta       23 (A1)     -0.0179
               69      Vir  Beta       32 (A1)      0.0912
               75      Vir  Beta       33 (A1)      0.1096


 EOMEE transition 5/A1
 Total energy = -679.71137480 a.u.  Excitation energy = 290.1813 eV.
 R0^2 = 0.0000  R1^2 = 0.8212  R2_CCVV^2 = 0.0016  R2_COVV^2 = 0.0886  Res^2 = 6.95e-05
 Conv-d = yes

 Amplitude    Transitions between orbitals
  0.3744       4 (A1) B                  ->    16 (A1) B                  
 -0.2390       2 (B1) B                  ->    10 (B1) B                  
 -0.2338       4 (A1) B                  ->    20 (A1) B                  
  0.1896       4 (A1) B                  ->    25 (A1) B                  
 -0.1570       4 (A1) B                  ->    32 (A1) B                  
  0.1531       4 (A1) B                  ->    27 (A1) B                  
 -0.1499       4 (A1) A                  ->    16 (A1) A                  
 -0.1486       4 (A1) B                  ->    18 (A1) B                  
  0.1483       3 (A1) A                  ->    16 (A1) A                  
 -0.1394       2 (B1) A                  ->    10 (B1) A                  
  0.1393       2 (B1) B                  ->    22 (B1) B                  
 -0.1259       2 (B1) B                  ->    16 (B1) B                  
 -0.1169       4 (A1) B                  ->    17 (A1) B                  
 -0.1099       3 (A1) B                  ->    16 (A1) B                  
  0.1079       2 (B1) B                  ->    21 (B1) B                  
 -0.1067       4 (A1) B                  ->    23 (A1) B                  
  0.1066       4 (A1) B                  ->    22 (A1) B                  

              Summary of significant orbitals:

               Number  Type             Irrep      Energy
               4       Occ  Alpha       3 (A1)    -11.5046
               6       Occ  Alpha       4 (A1)    -11.5029
               5       Occ  Alpha       2 (B1)    -11.5037
               3       Occ  Beta        3 (A1)    -11.4995
               6       Occ  Beta        4 (A1)    -11.4946
               5       Occ  Beta        2 (B1)    -11.4947
               31      Vir  Alpha      16 (A1)     -0.0903
               33      Vir  Alpha      10 (B1)     -0.0746
               30      Vir  Beta       16 (A1)     -0.0896
               33      Vir  Beta       17 (A1)     -0.0669
               35      Vir  Beta       18 (A1)     -0.0552
               41      Vir  Beta       20 (A1)     -0.0319
               46      Vir  Beta       22 (A1)     -0.0221
               49      Vir  Beta       23 (A1)     -0.0179
               54      Vir  Beta       25 (A1)     -0.0025
               58      Vir  Beta       27 (A1)      0.0170
               69      Vir  Beta       32 (A1)      0.0912
               32      Vir  Beta       10 (B1)     -0.0740
               55      Vir  Beta       16 (B1)      0.0020
               73      Vir  Beta       21 (B1)      0.1028
               76      Vir  Beta       22 (B1)      0.1143


 EOMEE transition 6/A1
 Total energy = -679.71016803 a.u.  Excitation energy = 290.2141 eV.
 R0^2 = 0.0000  R1^2 = 0.8236  R2_CCVV^2 = 0.0016  R2_COVV^2 = 0.0874  Res^2 = 3.42e-05
 Conv-d = yes

 Amplitude    Transitions between orbitals
  0.4166       3 (A1) B                  ->    16 (A1) B                  
  0.2642       2 (A1) A                  ->    16 (A1) A                  
  0.2583       1 (B1) B                  ->    10 (B1) B                  
  0.1732       1 (B1) A                  ->    10 (B1) A                  
 -0.1602       1 (B1) B                  ->    21 (B1) B                  
  0.1599       3 (A1) B                  ->    21 (A1) B                  
 -0.1580       3 (A1) B                  ->    32 (A1) B                  
 -0.1469       1 (B1) B                  ->    14 (B1) B                  
 -0.1441       3 (A1) B                  ->    23 (A1) B                  
 -0.1219       3 (A1) B                  ->    20 (A1) B                  
 -0.1158       1 (B1) A                  ->    21 (B1) A                  
 -0.1099       2 (A1) A                  ->    32 (A1) A                  
  0.1061       2 (A1) A                  ->    21 (A1) A                  
  0.1007       1 (B1) B                  ->    13 (B1) B                  
 -0.1005       1 (B1) A                  ->    14 (B1) A                  
 -0.1005       3 (A1) B                  ->    18 (A1) B                  

              Summary of significant orbitals:

               Number  Type             Irrep      Energy
               2       Occ  Alpha       2 (A1)    -11.5067
               3       Occ  Alpha       1 (B1)    -11.5067
               3       Occ  Beta        3 (A1)    -11.4995
               4       Occ  Beta        1 (B1)    -11.4995
               31      Vir  Alpha      16 (A1)     -0.0903
               44      Vir  Alpha      21 (A1)     -0.0259
               70      Vir  Alpha      32 (A1)      0.0899
               33      Vir  Alpha      10 (B1)     -0.0746
               50      Vir  Alpha      14 (B1)     -0.0134
               73      Vir  Alpha      21 (B1)      0.1009
               30      Vir  Beta       16 (A1)     -0.0896
               35      Vir  Beta       18 (A1)     -0.0552
               41      Vir  Beta       20 (A1)     -0.0319
               43      Vir  Beta       21 (A1)     -0.0258
               49      Vir  Beta       23 (A1)     -0.0179
               69      Vir  Beta       32 (A1)      0.0912
               32      Vir  Beta       10 (B1)     -0.0740
               44      Vir  Beta       13 (B1)     -0.0257
               50      Vir  Beta       14 (B1)     -0.0130
               73      Vir  Beta       21 (B1)      0.1028


 EOMEE transition 7/A1
 Total energy = -679.69870380 a.u.  Excitation energy = 290.5261 eV.
 R0^2 = 0.0000  R1^2 = 0.8107  R2_CCVV^2 = 0.0017  R2_COVV^2 = 0.0938  Res^2 = 1.07e-05
 Conv-d = yes

 Amplitude    Transitions between orbitals
  0.3790       5 (A1) A                  ->    17 (A1) A                  
 -0.3670       5 (A1) A                  ->    16 (A1) A                  
 -0.3575       5 (A1) A                  ->    18 (A1) A                  
 -0.3048       5 (A1) A                  ->    28 (A1) A                  
  0.2873       5 (A1) A                  ->    19 (A1) A                  
 -0.2747       5 (A1) A                  ->    23 (A1) A                  
  0.1581       5 (A1) A                  ->    27 (A1) A                  
  0.1542       5 (A1) A                  ->    33 (A1) A                  
  0.1257       5 (A1) A                  ->    31 (A1) A                  
 -0.1151       5 (A1) B                  ->    16 (A1) B                  
  0.1135       5 (A1) A                  ->    26 (A1) A                  

              Summary of significant orbitals:

               Number  Type             Irrep      Energy
               7       Occ  Alpha       5 (A1)    -11.4496
               7       Occ  Beta        5 (A1)    -11.4553
               31      Vir  Alpha      16 (A1)     -0.0903
               35      Vir  Alpha      17 (A1)     -0.0670
               36      Vir  Alpha      18 (A1)     -0.0559
               39      Vir  Alpha      19 (A1)     -0.0475
               49      Vir  Alpha      23 (A1)     -0.0179
               56      Vir  Alpha      26 (A1)      0.0025
               58      Vir  Alpha      27 (A1)      0.0176
               60      Vir  Alpha      28 (A1)      0.0342
               67      Vir  Alpha      31 (A1)      0.0742
               75      Vir  Alpha      33 (A1)      0.1100
               30      Vir  Beta       16 (A1)     -0.0896


 EOMEE transition 8/A1
 Total energy = -679.69412654 a.u.  Excitation energy = 290.6506 eV.
 R0^2 = 0.0000  R1^2 = 0.8031  R2_CCVV^2 = 0.0017  R2_COVV^2 = 0.0976  Res^2 = 6.75e-05
 Conv-d = yes

 Amplitude    Transitions between orbitals
  0.2888       4 (A1) A                  ->    16 (A1) A                  
 -0.2830       3 (A1) A                  ->    16 (A1) A                  
  0.2404       4 (A1) B                  ->    16 (A1) B                  
  0.2352       2 (B1) A                  ->    10 (B1) A                  
  0.1706       3 (A1) A                  ->    20 (A1) A                  
 -0.1705       4 (A1) A                  ->    20 (A1) A                  
 -0.1432       4 (A1) B                  ->    20 (A1) B                  
 -0.1410       3 (A1) A                  ->    25 (A1) A                  
  0.1364       4 (A1) A                  ->    25 (A1) A                  
 -0.1332       2 (B1) B                  ->    10 (B1) B                  
  0.1277       4 (A1) B                  ->    25 (A1) B                  
 -0.1175       3 (A1) A                  ->    27 (A1) A                  
 -0.1169       2 (B1) A                  ->    22 (B1) A                  
  0.1145       3 (A1) A                  ->    18 (A1) A                  
 -0.1127       4 (A1) A                  ->    18 (A1) A                  
  0.1122       4 (A1) A                  ->    27 (A1) A                  
 -0.1108       2 (B1) A                  ->    21 (B1) A                  
  0.1097       2 (B1) A                  ->    16 (B1) A                  
  0.1097       3 (A1) A                  ->    32 (A1) A                  
 -0.1094       4 (A1) A                  ->    32 (A1) A                  
  0.1080       4 (A1) B                  ->    27 (A1) B                  

              Summary of significant orbitals:

               Number  Type             Irrep      Energy
               4       Occ  Alpha       3 (A1)    -11.5046
               6       Occ  Alpha       4 (A1)    -11.5029
               5       Occ  Alpha       2 (B1)    -11.5037
               6       Occ  Beta        4 (A1)    -11.4946
               5       Occ  Beta        2 (B1)    -11.4947
               31      Vir  Alpha      16 (A1)     -0.0903
               36      Vir  Alpha      18 (A1)     -0.0559
               41      Vir  Alpha      20 (A1)     -0.0320
               54      Vir  Alpha      25 (A1)     -0.0023
               58      Vir  Alpha      27 (A1)      0.0176
               70      Vir  Alpha      32 (A1)      0.0899
               33      Vir  Alpha      10 (B1)     -0.0746
               55      Vir  Alpha      16 (B1)      0.0015
               73      Vir  Alpha      21 (B1)      0.1009
               76      Vir  Alpha      22 (B1)      0.1118
               30      Vir  Beta       16 (A1)     -0.0896
               41      Vir  Beta       20 (A1)     -0.0319
               54      Vir  Beta       25 (A1)     -0.0025
               58      Vir  Beta       27 (A1)      0.0170
               32      Vir  Beta       10 (B1)     -0.0740


 EOMEE transition 9/A1
 Total energy = -679.69093899 a.u.  Excitation energy = 290.7374 eV.
 R0^2 = 0.0000  R1^2 = 0.8067  R2_CCVV^2 = 0.0017  R2_COVV^2 = 0.0958  Res^2 = 4.57e-05
 Conv-d = yes

 Amplitude    Transitions between orbitals
 -0.3877       5 (A1) B                  ->    17 (A1) B                  
  0.3759       5 (A1) B                  ->    16 (A1) B                  
  0.3246       5 (A1) B                  ->    18 (A1) B                  
  0.3044       5 (A1) B                  ->    28 (A1) B                  
 -0.2972       5 (A1) B                  ->    19 (A1) B                  
  0.2711       5 (A1) B                  ->    23 (A1) B                  
 -0.1565       5 (A1) B                  ->    27 (A1) B                  
 -0.1545       5 (A1) B                  ->    33 (A1) B                  
 -0.1214       5 (A1) B                  ->    31 (A1) B                  

              Summary of significant orbitals:

               Number  Type             Irrep      Energy
               7       Occ  Beta        5 (A1)    -11.4553
               30      Vir  Beta       16 (A1)     -0.0896
               33      Vir  Beta       17 (A1)     -0.0669
               35      Vir  Beta       18 (A1)     -0.0552
               38      Vir  Beta       19 (A1)     -0.0473
               49      Vir  Beta       23 (A1)     -0.0179
               58      Vir  Beta       27 (A1)      0.0170
               60      Vir  Beta       28 (A1)      0.0362
               66      Vir  Beta       31 (A1)      0.0745
               75      Vir  Beta       33 (A1)      0.1096


 EOMEE transition 10/A1
 Total energy = -679.69050440 a.u.  Excitation energy = 290.7492 eV.
 R0^2 = 0.0000  R1^2 = 0.8088  R2_CCVV^2 = 0.0017  R2_COVV^2 = 0.0947  Res^2 = 3.81e-05
 Conv-d = yes

 Amplitude    Transitions between orbitals
 -0.4727       2 (A1) A                  ->    16 (A1) A                  
  0.3495       3 (A1) B                  ->    16 (A1) B                  
 -0.2568       1 (B1) A                  ->    10 (B1) A                  
  0.1707       1 (B1) B                  ->    10 (B1) B                  
 -0.1665       2 (A1) A                  ->    21 (A1) A                  
  0.1522       2 (A1) A                  ->    32 (A1) A                  
  0.1430       1 (B1) A                  ->    21 (B1) A                  
  0.1409       2 (A1) A                  ->    23 (A1) A                  
  0.1405       2 (A1) A                  ->    20 (A1) A                  
  0.1369       1 (B1) A                  ->    14 (B1) A                  
  0.1132       3 (A1) B                  ->    21 (A1) B                  
 -0.1037       3 (A1) B                  ->    20 (A1) B                  

              Summary of significant orbitals:

               Number  Type             Irrep      Energy
               2       Occ  Alpha       2 (A1)    -11.5067
               3       Occ  Alpha       1 (B1)    -11.5067
               3       Occ  Beta        3 (A1)    -11.4995
               4       Occ  Beta        1 (B1)    -11.4995
               31      Vir  Alpha      16 (A1)     -0.0903
               41      Vir  Alpha      20 (A1)     -0.0320
               44      Vir  Alpha      21 (A1)     -0.0259
               49      Vir  Alpha      23 (A1)     -0.0179
               70      Vir  Alpha      32 (A1)      0.0899
               33      Vir  Alpha      10 (B1)     -0.0746
               50      Vir  Alpha      14 (B1)     -0.0134
               73      Vir  Alpha      21 (B1)      0.1009
               30      Vir  Beta       16 (A1)     -0.0896
               41      Vir  Beta       20 (A1)     -0.0319
               43      Vir  Beta       21 (A1)     -0.0258
               32      Vir  Beta       10 (B1)     -0.0740


      CVS-EOM-CCSD/MP2 left amplitudes will be solved using Davidson.
        Amplitudes will be solved using MOM  algorithm.
     Hard-coded thresholds: 
     LinDepThresh=1.00e-15  NormThresh=1.00e-06  ReorthogonThresh=1.00e-02

      Roots     MaxVec    MaxIter   Precond   Conv      Shift    
      10        1000      200       1         1.00e-04  1.00e+01  
 ------------------------------------------------------------------------------
      Iter ConvRoots NVecs ResNorm Current eigenvalues (eV)
 ------------------------------------------------------------------------------
      0    0      10    2.25e-02   288.3783   289.2490   289.6439   289.6813   290.1813   290.2141   290.5261   290.6507   290.7374   290.7492   
      1    0      20    1.95e+01   288.3780   289.2487   289.6438   289.6813   290.1811   290.2141   290.5260   290.6505   290.7373   290.7491   
      2    0      30    6.47e-02   288.3780   289.2488   289.6438   289.6814   290.1810   290.2142   290.5260   290.6506   290.7376   290.7492   
      3    0      40    2.97e-03   288.3778   289.2486   289.6437   289.6814   290.1809   290.2143   290.5260   290.6506   290.7375   290.7491   
      4    2      50    8.27e-04   288.3777   289.2487   289.6436   289.6814   290.1808   290.2143   290.5260   290.6505*  290.7375   290.7490*  
      5    7      58    8.25e-05   288.3776   289.2486   289.6436*  289.6814*  290.1808*  290.2142*  290.5260*  290.6505*  290.7374*  290.7490   
      6    10     61    5.47e-05   288.3776*  289.2486*  289.6436*  289.6814*  290.1808*  290.2142*  290.5260*  290.6505*  290.7374*  290.7490*  

     Davidson procedure converged

        Solving for CVS-EOMEE-CCSD A2 transitions.

       EOMEE-CCSD-SINGLES right amplitudes will be solved using Davidson.
        Amplitudes will be solved using shifted  algorithm.
     Hard-coded thresholds: 
     LinDepThresh=1.00e-15  NormThresh=1.00e-06  ReorthogonThresh=1.00e-02

      Roots     MaxVec    MaxIter   Precond   Conv      Shift    
      10        1000      200       1         1.00e-04  1.00e+01  
 ------------------------------------------------------------------------------
      Iter ConvRoots NVecs ResNorm Current eigenvalues (eV)
 ------------------------------------------------------------------------------
      0    0      10    2.52e-02   296.7136   296.7684   297.7623   299.5980   300.8318   301.0249   301.5864   303.1406   304.7302   307.4037   
      1    0      20    4.21e-02   292.9643   292.9956   297.5230   298.3177   298.7461   299.1437   301.3808   302.9506   304.4543   306.9969   
      2    4      30    1.92e-03   290.5151   290.5426   296.0027   296.6081   297.4420*  298.9057*  301.3584*  302.6072   302.7129   302.9207*  
      3    8      36    2.37e-04   290.4958*  290.5230*  295.9392*  296.5294*  297.4420*  298.9057*  301.3584*  302.0851   302.1880   302.9207*  
      4    8      38    7.12e-05   290.4966*  290.5238*  295.9392*  296.5294*  297.4420*  298.9057*  301.3584*  302.0257   302.1195   302.9207*  
      5    10     40    3.53e-05   290.4965*  290.5238*  295.9392*  296.5294*  297.4420*  298.9057*  301.3584*  302.0232*  302.1157*  302.9207*  

     Davidson procedure converged

        CVS-EOMEE-CCSD/MP2 right amplitudes will be solved using Davidson.
        Amplitudes will be solved using shifted  algorithm.
     Hard-coded thresholds: 
     LinDepThresh=1.00e-15  NormThresh=1.00e-06  ReorthogonThresh=1.00e-02

      Roots     MaxVec    MaxIter   Precond   Conv      Shift    
      10        1000      200       1         1.00e-04  1.00e+01  
 ------------------------------------------------------------------------------
      Iter ConvRoots NVecs ResNorm Current eigenvalues (eV)
 ------------------------------------------------------------------------------
      0    0      10    1.94e+00   290.4965   290.5238   295.9392   296.5294   297.4420   298.9057   301.3584   302.0232   302.1157   302.9207   
      1    0      20    4.34e+00   288.4443   288.4741   293.7102   294.2135   294.2406   295.6845   298.1626   298.8795   298.9794   299.7169   
      2    0      30    8.49e-02   281.8613   281.9251   282.6721   284.0544   286.8297   286.8854   287.0903   288.2443   288.5149   288.5606   
      3    0      40    1.89e-02   281.3960   281.4598   282.1683   283.5379   286.1248   286.3257   286.3374   287.7088   287.8413   287.8908   
      4    0      50    4.06e-03   281.3215   281.3862   282.0963   283.4622   285.9346   286.1354   286.2939   287.6744   287.6911   287.7312   
      5    0      60    1.86e-03   281.3145   281.3777   282.0719   283.4336   285.8686   286.0651   286.2885   287.6212   287.6625   287.6738   
      6    2      70    4.91e-04   281.3095   281.3728   282.0619   283.4241   285.8498   286.0451   286.2872*  287.5917   287.6337   287.6723*  
      7    6      78    2.15e-04   281.3095*  281.3726*  282.0580*  283.4207*  285.8377   286.0324   286.2870*  287.5764   287.6198   287.6721*  
      8    8      82    9.97e-05   281.3097*  281.3728*  282.0580*  283.4207*  285.8368*  286.0318*  286.2870*  287.5702   287.6149   287.6721*  
      9    8      84    8.18e-05   281.3100*  281.3730*  282.0580*  283.4207*  285.8368*  286.0318*  286.2870*  287.5678   287.6130   287.6721*  
      10   10     86    6.55e-05   281.3101*  281.3732*  282.0580*  283.4207*  285.8368*  286.0318*  286.2870*  287.5658*  287.6111*  287.6721*  

     Davidson procedure converged

 EOMEE transition 1/A2
 Total energy = -680.03738557 a.u.  Excitation energy = 281.3101 eV.
 R0^2 = 0.0000  R1^2 = 0.8568  R2_CCVV^2 = 0.0018  R2_COVV^2 = 0.0707  Res^2 = 4.66e-05
 Conv-d = yes

 Amplitude    Transitions between orbitals
  0.8146       4 (A1) B                  ->    1 (A2) B                   
  0.1855       4 (A1) B                  ->    2 (A2) B                   
 -0.1583       3 (A1) B                  ->    1 (A2) B                   
  0.1210       2 (B1) B                  ->    5 (B2) B                   
 -0.1132       2 (B1) B                  ->    6 (B2) B                   
  0.1044       4 (A1) B                  ->    5 (A2) B                   

              Summary of significant orbitals:

               Number  Type             Irrep      Energy
               3       Occ  Beta        3 (A1)    -11.4995
               6       Occ  Beta        4 (A1)    -11.4946
               5       Occ  Beta        2 (B1)    -11.4947
               29      Vir  Beta        1 (A2)     -0.2597
               36      Vir  Beta        2 (A2)     -0.0528
               63      Vir  Beta        5 (A2)      0.0470
               31      Vir  Beta        5 (B2)     -0.0793
               34      Vir  Beta        6 (B2)     -0.0598


 EOMEE transition 2/A2
 Total energy = -680.03506820 a.u.  Excitation energy = 281.3732 eV.
 R0^2 = 0.0000  R1^2 = 0.8565  R2_CCVV^2 = 0.0018  R2_COVV^2 = 0.0709  Res^2 = 5.10e-05
 Conv-d = yes

 Amplitude    Transitions between orbitals
 -0.8151       3 (A1) B                  ->    1 (A2) B                   
  0.1673       3 (A1) B                  ->    2 (A2) B                   
 -0.1575       4 (A1) B                  ->    1 (A2) B                   
 -0.1214       1 (B1) B                  ->    6 (B2) B                   
  0.1175       1 (B1) B                  ->    5 (B2) B                   
  0.1091       1 (B1) B                  ->    16 (B2) B                  
 -0.1058       3 (A1) B                  ->    5 (A2) B                   

              Summary of significant orbitals:

               Number  Type             Irrep      Energy
               3       Occ  Beta        3 (A1)    -11.4995
               6       Occ  Beta        4 (A1)    -11.4946
               4       Occ  Beta        1 (B1)    -11.4995
               29      Vir  Beta        1 (A2)     -0.2597
               36      Vir  Beta        2 (A2)     -0.0528
               63      Vir  Beta        5 (A2)      0.0470
               31      Vir  Beta        5 (B2)     -0.0793
               34      Vir  Beta        6 (B2)     -0.0598
               85      Vir  Beta       16 (B2)      0.1829


 EOMEE transition 3/A2
 Total energy = -680.00990116 a.u.  Excitation energy = 282.0580 eV.
 R0^2 = 0.0000  R1^2 = 0.7934  R2_CCVV^2 = 0.0017  R2_COVV^2 = 0.1024  Res^2 = 9.28e-05
 Conv-d = yes

 Amplitude    Transitions between orbitals
  0.8702       5 (A1) B                  ->    1 (A2) B                   
 -0.1252       5 (A1) B                  ->    2 (A2) B                   
  0.0809       5 (A1) B                  ->    5 (A2) B                   
 -0.0537       5 (A1) B                  ->    7 (A2) B                   

              Summary of significant orbitals:

               Number  Type             Irrep      Energy
               7       Occ  Beta        5 (A1)    -11.4553
               29      Vir  Beta        1 (A2)     -0.2597
               36      Vir  Beta        2 (A2)     -0.0528
               63      Vir  Beta        5 (A2)      0.0470
               107     Vir  Beta        7 (A2)      0.5870


 EOMEE transition 4/A2
 Total energy = -679.95982121 a.u.  Excitation energy = 283.4207 eV.
 R0^2 = 0.0000  R1^2 = 0.7894  R2_CCVV^2 = 0.0017  R2_COVV^2 = 0.1045  Res^2 = 9.58e-05
 Conv-d = yes

 Amplitude    Transitions between orbitals
 -0.8666       2 (A1) B                  ->    1 (A2) B                   
 -0.1417       2 (A1) B                  ->    2 (A2) B                   
 -0.0784       2 (A1) B                  ->    5 (A2) B                   
  0.0556       2 (A1) B                  ->    6 (A2) B                   

              Summary of significant orbitals:

               Number  Type             Irrep      Energy
               2       Occ  Beta        2 (A1)    -11.5124
               29      Vir  Beta        1 (A2)     -0.2597
               36      Vir  Beta        2 (A2)     -0.0528
               63      Vir  Beta        5 (A2)      0.0470
               71      Vir  Beta        6 (A2)      0.0984


 EOMEE transition 5/A2
 Total energy = -679.87103142 a.u.  Excitation energy = 285.8368 eV.
 R0^2 = 0.0000  R1^2 = 0.8400  R2_CCVV^2 = 0.0018  R2_COVV^2 = 0.0791  Res^2 = 8.46e-05
 Conv-d = yes

 Amplitude    Transitions between orbitals
  0.7237       2 (A1) A                  ->    2 (A2) A                   
 -0.2883       1 (B1) A                  ->    5 (B2) A                   
 -0.1875       3 (A1) A                  ->    2 (A2) A                   
  0.1849       1 (B1) A                  ->    16 (B2) A                  
 -0.1438       3 (A1) B                  ->    1 (A2) B                   
  0.1209       4 (A1) A                  ->    2 (A2) A                   
  0.1170       1 (B1) A                  ->    14 (B2) A                  
 -0.1158       2 (A1) A                  ->    6 (A2) A                   
  0.1039       2 (A1) A                  ->    8 (A2) A                   
 -0.1034       1 (B1) A                  ->    13 (B2) A                  

              Summary of significant orbitals:

               Number  Type             Irrep      Energy
               2       Occ  Alpha       2 (A1)    -11.5067
               4       Occ  Alpha       3 (A1)    -11.5046
               6       Occ  Alpha       4 (A1)    -11.5029
               3       Occ  Alpha       1 (B1)    -11.5067
               3       Occ  Beta        3 (A1)    -11.4995
               30      Vir  Alpha       2 (A2)     -0.1449
               69      Vir  Alpha       6 (A2)      0.0824
               109     Vir  Alpha       8 (A2)      0.6017
               32      Vir  Alpha       5 (B2)     -0.0880
               66      Vir  Alpha      13 (B2)      0.0701
               72      Vir  Alpha      14 (B2)      0.0979
               83      Vir  Alpha      16 (B2)      0.1556
               29      Vir  Beta        1 (A2)     -0.2597


 EOMEE transition 6/A2
 Total energy = -679.86386793 a.u.  Excitation energy = 286.0317 eV.
 R0^2 = 0.0000  R1^2 = 0.8333  R2_CCVV^2 = 0.0018  R2_COVV^2 = 0.0825  Res^2 = 7.47e-05
 Conv-d = yes

 Amplitude    Transitions between orbitals
  0.5367       4 (A1) A                  ->    2 (A2) A                   
 -0.5018       3 (A1) A                  ->    2 (A2) A                   
  0.2677       2 (B1) A                  ->    5 (B2) A                   
 -0.2163       2 (A1) A                  ->    2 (A2) A                   
 -0.1839       2 (B1) A                  ->    13 (B2) A                  
  0.1652       2 (B1) A                  ->    16 (B2) A                  
 -0.1410       4 (A1) B                  ->    1 (A2) B                   
  0.1102       4 (A1) B                  ->    2 (A2) B                   

              Summary of significant orbitals:

               Number  Type             Irrep      Energy
               2       Occ  Alpha       2 (A1)    -11.5067
               4       Occ  Alpha       3 (A1)    -11.5046
               6       Occ  Alpha       4 (A1)    -11.5029
               5       Occ  Alpha       2 (B1)    -11.5037
               6       Occ  Beta        4 (A1)    -11.4946
               30      Vir  Alpha       2 (A2)     -0.1449
               32      Vir  Alpha       5 (B2)     -0.0880
               66      Vir  Alpha      13 (B2)      0.0701
               83      Vir  Alpha      16 (B2)      0.1556
               29      Vir  Beta        1 (A2)     -0.2597
               36      Vir  Beta        2 (A2)     -0.0528


 EOMEE transition 7/A2
 Total energy = -679.85448668 a.u.  Excitation energy = 286.2870 eV.
 R0^2 = 0.0000  R1^2 = 0.8000  R2_CCVV^2 = 0.0017  R2_COVV^2 = 0.0992  Res^2 = 5.10e-05
 Conv-d = yes

 Amplitude    Transitions between orbitals
 -0.8844       5 (A1) A                  ->    2 (A2) A                   
  0.0872       5 (A1) A                  ->    6 (A2) A                   
  0.0501       2 (A1) A                  ->    2 (A2) A                   
 -0.0484       5 (A1) A                  ->    8 (A2) A                   

              Summary of significant orbitals:

               Number  Type             Irrep      Energy
               2       Occ  Alpha       2 (A1)    -11.5067
               7       Occ  Alpha       5 (A1)    -11.4496
               30      Vir  Alpha       2 (A2)     -0.1449
               69      Vir  Alpha       6 (A2)      0.0824
               109     Vir  Alpha       8 (A2)      0.6017


 EOMEE transition 8/A2
 Total energy = -679.80749288 a.u.  Excitation energy = 287.5658 eV.
 R0^2 = 0.0000  R1^2 = 0.8099  R2_CCVV^2 = 0.0017  R2_COVV^2 = 0.0942  Res^2 = 4.89e-05
 Conv-d = yes

 Amplitude    Transitions between orbitals
  0.6260       4 (A1) B                  ->    2 (A2) B                   
 -0.2744       4 (A1) B                  ->    1 (A2) B                   
 -0.2258       4 (A1) B                  ->    4 (A2) B                   
 -0.2231       4 (A1) B                  ->    6 (A2) B                   
  0.2099       2 (B1) B                  ->    5 (B2) B                   
 -0.2038       2 (B1) B                  ->    16 (B2) B                  
 -0.1879       4 (A1) A                  ->    2 (A2) A                   
 -0.1692       2 (B1) B                  ->    6 (B2) B                   
 -0.1479       2 (B1) B                  ->    13 (B2) B                  
 -0.1124       4 (A1) B                  ->    8 (A2) B                   

              Summary of significant orbitals:

               Number  Type             Irrep      Energy
               6       Occ  Alpha       4 (A1)    -11.5029
               6       Occ  Beta        4 (A1)    -11.4946
               5       Occ  Beta        2 (B1)    -11.4947
               30      Vir  Alpha       2 (A2)     -0.1449
               29      Vir  Beta        1 (A2)     -0.2597
               36      Vir  Beta        2 (A2)     -0.0528
               47      Vir  Beta        4 (A2)     -0.0192
               71      Vir  Beta        6 (A2)      0.0984
               112     Vir  Beta        8 (A2)      0.6365
               31      Vir  Beta        5 (B2)     -0.0793
               34      Vir  Beta        6 (B2)     -0.0598
               68      Vir  Beta       13 (B2)      0.0842
               85      Vir  Beta       16 (B2)      0.1829


 EOMEE transition 9/A2
 Total energy = -679.80582692 a.u.  Excitation energy = 287.6111 eV.
 R0^2 = 0.0000  R1^2 = 0.8076  R2_CCVV^2 = 0.0017  R2_COVV^2 = 0.0953  Res^2 = 5.69e-05
 Conv-d = yes

 Amplitude    Transitions between orbitals
 -0.6280       3 (A1) B                  ->    2 (A2) B                   
 -0.2618       3 (A1) B                  ->    1 (A2) B                   
  0.2268       3 (A1) B                  ->    4 (A2) B                   
  0.2256       3 (A1) B                  ->    6 (A2) B                   
 -0.2203       1 (B1) B                  ->    16 (B2) B                  
 -0.1973       1 (B1) B                  ->    5 (B2) B                   
  0.1868       1 (B1) B                  ->    6 (B2) B                   
 -0.1847       2 (A1) A                  ->    2 (A2) A                   
  0.1139       3 (A1) B                  ->    8 (A2) B                   

              Summary of significant orbitals:

               Number  Type             Irrep      Energy
               2       Occ  Alpha       2 (A1)    -11.5067
               3       Occ  Beta        3 (A1)    -11.4995
               4       Occ  Beta        1 (B1)    -11.4995
               30      Vir  Alpha       2 (A2)     -0.1449
               29      Vir  Beta        1 (A2)     -0.2597
               36      Vir  Beta        2 (A2)     -0.0528
               47      Vir  Beta        4 (A2)     -0.0192
               71      Vir  Beta        6 (A2)      0.0984
               112     Vir  Beta        8 (A2)      0.6365
[...]
 State B: cvs_eomee_ccsd/uhfref: 7/B1
 Transition dipole moment (a.u.):
   A->B: 0.012941 (X -0.012941, Y 0.000000, Z 0.000000)
   B->A: 0.012406 (X -0.012406, Y 0.000000, Z 0.000000)
 Oscillator strength (a.u.): 0.001146
 Norm of one-particle transition density matrix:
   A->B: 0.891435;   B->A: 0.857455
   ||gamma^AB||*||gamma^BA||: 0.764365

 ------------------------------------------------------------------------------
 State A: ccsd: 0/A1
 State B: cvs_eomee_ccsd/uhfref: 8/B1
 Transition dipole moment (a.u.):
   A->B: 0.018679 (X -0.018679, Y 0.000000, Z 0.000000)
   B->A: 0.017788 (X -0.017788, Y 0.000000, Z 0.000000)
 Oscillator strength (a.u.): 0.002373
 Norm of one-particle transition density matrix:
   A->B: 0.888348;   B->A: 0.849940
   ||gamma^AB||*||gamma^BA||: 0.755042

 ------------------------------------------------------------------------------
 State A: ccsd: 0/A1
 State B: cvs_eomee_ccsd/uhfref: 9/B1
 Transition dipole moment (a.u.):
   A->B: 0.021834 (X -0.021834, Y 0.000000, Z 0.000000)
   B->A: 0.021114 (X -0.021114, Y 0.000000, Z 0.000000)
 Oscillator strength (a.u.): 0.003294
 Norm of one-particle transition density matrix:
   A->B: 0.897866;   B->A: 0.858450
   ||gamma^AB||*||gamma^BA||: 0.770774

 ------------------------------------------------------------------------------
 State A: ccsd: 0/A1
 State B: cvs_eomee_ccsd/uhfref: 10/B1
 Transition dipole moment (a.u.):
   A->B: 0.028876 (X -0.028876, Y 0.000000, Z 0.000000)
   B->A: 0.027811 (X -0.027811, Y 0.000000, Z 0.000000)
 Oscillator strength (a.u.): 0.005742
 Norm of one-particle transition density matrix:
   A->B: 0.894818;   B->A: 0.854038
   ||gamma^AB||*||gamma^BA||: 0.764209

 ------------------------------------------------------------------------------
 State A: ccsd: 0/A1
 State B: cvs_eomee_ccsd/uhfref: 1/B2
 Transition dipole moment (a.u.):
   A->B: 0.049134 (X 0.000000, Y -0.049134, Z 0.000000)
   B->A: 0.050351 (X 0.000000, Y -0.050351, Z 0.000000)
 Oscillator strength (a.u.): 0.017051
 Norm of one-particle transition density matrix:
   A->B: 0.905223;   B->A: 0.906883
   ||gamma^AB||*||gamma^BA||: 0.820931

 ------------------------------------------------------------------------------
 State A: ccsd: 0/A1
 State B: cvs_eomee_ccsd/uhfref: 2/B2
 Transition dipole moment (a.u.):
   A->B: 0.096042 (X 0.000000, Y -0.096042, Z 0.000000)
   B->A: 0.097662 (X 0.000000, Y -0.097662, Z 0.000000)
 Oscillator strength (a.u.): 0.064659
 Norm of one-particle transition density matrix:
   A->B: 0.906785;   B->A: 0.906217
   ||gamma^AB||*||gamma^BA||: 0.821744

 ------------------------------------------------------------------------------
 State A: ccsd: 0/A1
 State B: cvs_eomee_ccsd/uhfref: 3/B2
 Transition dipole moment (a.u.):
   A->B: 0.035326 (X 0.000000, Y 0.035326, Z 0.000000)
   B->A: 0.037993 (X 0.000000, Y 0.037993, Z 0.000000)
 Oscillator strength (a.u.): 0.009376
 Norm of one-particle transition density matrix:
   A->B: 0.903704;   B->A: 0.913487
   ||gamma^AB||*||gamma^BA||: 0.825522

 ------------------------------------------------------------------------------
 State A: ccsd: 0/A1
 State B: cvs_eomee_ccsd/uhfref: 4/B2
 Transition dipole moment (a.u.):
   A->B: 0.081733 (X 0.000000, Y -0.081733, Z 0.000000)
   B->A: 0.081671 (X 0.000000, Y -0.081671, Z 0.000000)
 Oscillator strength (a.u.): 0.046746
 Norm of one-particle transition density matrix:
   A->B: 0.894408;   B->A: 0.898202
   ||gamma^AB||*||gamma^BA||: 0.803359

 ------------------------------------------------------------------------------
 State A: ccsd: 0/A1
 State B: cvs_eomee_ccsd/uhfref: 5/B2
 Transition dipole moment (a.u.):
   A->B: 0.071541 (X 0.000000, Y 0.071541, Z 0.000000)
   B->A: 0.070806 (X 0.000000, Y 0.070806, Z 0.000000)
 Oscillator strength (a.u.): 0.035498
 Norm of one-particle transition density matrix:
   A->B: 0.895349;   B->A: 0.895495
   ||gamma^AB||*||gamma^BA||: 0.801781

 ------------------------------------------------------------------------------
 State A: ccsd: 0/A1
 State B: cvs_eomee_ccsd/uhfref: 6/B2
 Transition dipole moment (a.u.):
   A->B: 0.035808 (X 0.000000, Y -0.035808, Z 0.000000)
   B->A: 0.039921 (X 0.000000, Y -0.039921, Z 0.000000)
 Oscillator strength (a.u.): 0.010023
 Norm of one-particle transition density matrix:
   A->B: 0.896496;   B->A: 0.914267
   ||gamma^AB||*||gamma^BA||: 0.819637

 ------------------------------------------------------------------------------
 State A: ccsd: 0/A1
 State B: cvs_eomee_ccsd/uhfref: 7/B2
 Transition dipole moment (a.u.):
   A->B: 0.079682 (X 0.000000, Y 0.079682, Z 0.000000)
   B->A: 0.083193 (X 0.000000, Y 0.083193, Z 0.000000)
 Oscillator strength (a.u.): 0.046506
 Norm of one-particle transition density matrix:
   A->B: 0.892453;   B->A: 0.899575
   ||gamma^AB||*||gamma^BA||: 0.802829

 ------------------------------------------------------------------------------
 State A: ccsd: 0/A1
 State B: cvs_eomee_ccsd/uhfref: 8/B2
 Transition dipole moment (a.u.):
   A->B: 0.085604 (X 0.000000, Y -0.085604, Z 0.000000)
   B->A: 0.087960 (X 0.000000, Y -0.087960, Z 0.000000)
 Oscillator strength (a.u.): 0.053049
 Norm of one-particle transition density matrix:
   A->B: 0.883904;   B->A: 0.875521
   ||gamma^AB||*||gamma^BA||: 0.773877

 ------------------------------------------------------------------------------
 State A: ccsd: 0/A1
 State B: cvs_eomee_ccsd/uhfref: 9/B2
 Transition dipole moment (a.u.):
   A->B: 0.068821 (X 0.000000, Y -0.068821, Z 0.000000)
   B->A: 0.067861 (X 0.000000, Y -0.067861, Z 0.000000)
 Oscillator strength (a.u.): 0.032909
 Norm of one-particle transition density matrix:
   A->B: 0.887611;   B->A: 0.871145
   ||gamma^AB||*||gamma^BA||: 0.773238

 ------------------------------------------------------------------------------
 State A: ccsd: 0/A1
 State B: cvs_eomee_ccsd/uhfref: 10/B2
 Transition dipole moment (a.u.):
   A->B: 0.079366 (X 0.000000, Y -0.079366, Z 0.000000)
   B->A: 0.086156 (X 0.000000, Y -0.086156, Z 0.000000)
 Oscillator strength (a.u.): 0.048190
 Norm of one-particle transition density matrix:
   A->B: 0.893333;   B->A: 0.899474
   ||gamma^AB||*||gamma^BA||: 0.803530


 All requested transition properties have been computed

 Transition Properties:   CPU 6147.07 s  wall 1042.06 s

 Total ccman2 time:   CPU 353352.31 s  wall 149362.38 s

 58 B1   80 A1   19 A2   35 B2   59 B1   36 B2   60 B1   81 A1                 
  3.538   3.549   3.673   3.698   3.800   3.968   4.158   4.228
 61 B1   82 A1   62 B1   83 A1   84 A1   85 A1   63 B1   86 A1                 
  4.282   4.292   4.897   5.032   5.215   5.219   5.534   5.541
 87 A1   64 B1   88 A1   65 B1   66 B1   89 A1   90 A1   67 B1                 
  5.958  10.378  20.409  20.464  20.477  20.604  20.608  20.892
 91 A1   92 A1   93 A1   68 B1   94 A1   95 A1   69 B1   96 A1                 
 26.631  26.892  27.354  79.975  80.037  80.048  80.160  80.161
 37 B2   70 B1   97 A1   98 A1   71 B1   99 A1   72 B1  100 A1                 
 80.381 219.243 321.816 321.874 321.882 321.978 321.982 322.160
101 A1  102 A1  103 A1   73 B1  104 A1   74 B1  105 A1  106 A1                 
*******1431.4371431.4431431.5251431.5301431.6788749.6238749.666
107 A1   75 B1  108 A1   76 B1  109 A1  110 A1  111 A1   77 B1                 
*******8749.7388749.7458749.864
112 A1   78 B1  113 A1  114 A1                                                 

 --------------------------------------------------------------
             Orbital Energies (a.u.) and Symmetries
 --------------------------------------------------------------

 Alpha MOs, Unrestricted
 -- Occupied --                  
-105.01  -11.51  -11.51  -11.50  -11.50  -11.50  -11.45  -10.73
  1 A1    2 A1    1 B1    3 A1    2 B1    4 A1    5 A1    6 A1                 
 -8.202  -8.198  -8.197  -1.425  -1.319  -1.296  -1.208  -1.081
  7 A1    3 B1    1 B2    8 A1    9 A1    4 B1   10 A1    5 B1                 
 -1.049  -0.934  -0.882  -0.869  -0.842  -0.788  -0.778  -0.740
 11 A1   12 A1    6 B1   13 A1    7 B1   14 A1    2 B2    8 B1                 
 -0.722  -0.653  -0.637  -0.625  -0.537
 15 A1    3 B2    1 A2    9 B1    4 B2                                         
 -- Virtual --                   
 -0.145  -0.090  -0.088  -0.075  -0.069  -0.067  -0.056  -0.050
  2 A2   16 A1    5 B2   10 B1    6 B2   17 A1   18 A1   11 B1                 
 -0.049  -0.047  -0.042  -0.032  -0.027  -0.026  -0.026  -0.023
  3 A2   19 A1    7 B2   20 A1   12 B1   13 B1   21 A1    4 A2                 
 -0.023  -0.022  -0.018  -0.018  -0.013  -0.009  -0.005  -0.003
  8 B2   22 A1    9 B2   23 A1   14 B1   24 A1   15 B1   10 B2                 
 -0.002   0.002   0.002   0.012   0.018   0.021   0.034   0.037
 25 A1   16 B1   26 A1   17 B1   27 A1   11 B2   28 A1    5 A2                 
  0.043   0.048   0.049   0.069   0.070   0.074   0.075   0.082
 29 A1   18 B1   12 B2   30 A1   13 B2   31 A1   19 B1    6 A2                 
  0.090   0.092   0.098   0.101   0.107   0.110   0.112   0.120
 32 A1   20 B1   14 B2   21 B1   15 B2   33 A1   22 B1   34 A1                 
  0.129   0.131   0.146   0.148   0.152   0.156   0.164   0.178
 35 A1   23 B1   36 A1   24 B1   37 A1   16 B2   38 A1   25 B1                 
  0.201   0.209   0.237   0.240   0.248   0.251   0.259   0.310
 26 B1   39 A1   40 A1   27 B1   41 A1   28 B1   42 A1   43 A1                 
  0.328   0.339   0.341   0.444   0.450   0.473   0.495   0.504
 29 B1   30 B1   44 A1   45 A1   31 B1   32 B1   46 A1   17 B2                 
  0.522   0.524   0.528   0.544   0.549   0.552   0.592   0.602
 47 A1   33 B1   18 B2   34 B1    7 A2   48 A1   19 B2    8 A2                 
  0.609   0.611   0.636   0.682   0.692   0.701   0.735   0.735
 49 A1   35 B1   20 B2   21 B2   50 A1   51 A1   36 B1   52 A1                 
  0.750   0.775   0.816   0.838   0.845   0.862   0.872   0.877
 37 B1   53 A1   38 B1   54 A1   55 A1   39 B1   22 B2   56 A1                 
  0.888   0.898   0.930   0.964   0.974   0.985   1.005   1.009
 40 B1   57 A1   41 B1    9 A2   58 A1   42 B1   10 A2   23 B2                 
  1.048   1.069   1.098   1.127   1.154   1.249   1.274   1.293
 59 A1   11 A2   60 A1   24 B2   12 A2   61 A1   62 A1   43 B1                 
  1.370   1.461   1.510   1.551   1.561   1.611   1.612   1.638
 25 B2   63 A1   44 B1   64 A1   45 B1   13 A2   26 B2   65 A1                 
  1.682   1.694   1.698   1.756   1.774   1.801   1.816   1.893
 27 B2   46 B1   66 A1   67 A1   47 B1   28 B2   14 A2   48 B1                 
  1.955   1.973   1.996   2.003   2.024   2.031   2.071   2.103
 68 A1   29 B2   15 A2   49 B1   50 B1   69 A1   30 B2   70 A1                 
  2.131   2.132   2.180   2.360   2.401   2.412   2.516   2.538
 16 A2   51 B1   71 A1   31 B2   52 B1   17 A2   32 B2   72 A1                 
  2.571   2.595   2.608   2.664   2.706   2.737   2.771   2.801
 53 B1   73 A1   54 B1   55 B1   74 A1   75 A1   76 A1   77 A1                 
  2.802   2.825   2.828   2.839   2.844   2.941   2.973   2.989
 56 B1   78 A1   33 B2   57 B1   79 A1   18 A2   34 B2   58 B1                 
  2.996   3.029   3.071   3.091   3.237   3.336   3.430   3.537
 80 A1   19 A2   35 B2   59 B1   36 B2   60 B1   81 A1   61 B1                 
  3.541   3.667   3.695   3.798   3.964   4.150   4.227   4.274
 82 A1   62 B1   83 A1   84 A1   85 A1   63 B1   86 A1   87 A1                 
  4.287   4.892   5.026   5.207   5.217   5.531   5.534   5.953
 64 B1   88 A1   65 B1   66 B1   89 A1   67 B1   90 A1   91 A1                 
 10.379  20.407  20.459  20.478  20.603  20.605  20.891  26.631
 92 A1   93 A1   68 B1   94 A1   69 B1   95 A1   96 A1   37 B2                 
 26.892  27.354  79.974  80.035  80.048  80.158  80.162  80.381
 70 B1   97 A1   98 A1   71 B1   99 A1   72 B1  100 A1  101 A1                 
219.244 321.816 321.873 321.883 321.978 321.982 322.1591431.385
102 A1  103 A1   73 B1  104 A1   74 B1  105 A1  106 A1  107 A1                 
*******1431.4441431.5251431.5301431.6788749.6238749.6668749.672
 75 B1  108 A1   76 B1  109 A1  110 A1  111 A1   77 B1  112 A1                 
*******8749.7458749.864
 78 B1  113 A1  114 A1                                                         

 Beta MOs, Unrestricted
 -- Occupied --                  
-105.01  -11.51  -11.50  -11.50  -11.49  -11.49  -11.46  -10.73
  1 A1    2 A1    3 A1    1 B1    2 B1    4 A1    5 A1    6 A1                 
 -8.201  -8.199  -8.198  -1.406  -1.319  -1.242  -1.206  -1.060
  7 A1    1 B2    3 B1    8 A1    9 A1    4 B1   10 A1    5 B1                 
 -1.043  -0.930  -0.876  -0.864  -0.833  -0.789  -0.738  -0.722
 11 A1   12 A1    6 B1   13 A1    7 B1   14 A1    8 B1    2 B2                 
 -0.719  -0.639  -0.624  -0.548
 15 A1    3 B2    9 B1    4 B2                                                 
 -- Virtual --                   
 -0.260  -0.090  -0.079  -0.074  -0.067  -0.060  -0.055  -0.053
  1 A2   16 A1    5 B2   10 B1   17 A1    6 B2   18 A1    2 A2                 
 -0.050  -0.047  -0.047  -0.041  -0.032  -0.027  -0.026  -0.026
 11 B1   19 A1    3 A2    7 B2   20 A1   12 B1   21 A1   13 B1                 
 -0.023  -0.022  -0.019  -0.018  -0.018  -0.013  -0.009  -0.005
  8 B2   22 A1    4 A2    9 B2   23 A1   14 B1   24 A1   15 B1                 
 -0.003  -0.003   0.002   0.003   0.013   0.017   0.029   0.036
 10 B2   25 A1   16 B1   26 A1   17 B1   27 A1   11 B2   28 A1                 
  0.041   0.047   0.047   0.048   0.068   0.075   0.083   0.084
 29 A1   12 B2    5 A2   18 B1   30 A1   31 A1   19 B1   13 B2                 
  0.091   0.093   0.098   0.102   0.103   0.104   0.110   0.114
 32 A1   20 B1    6 A2   14 B2   21 B1   15 B2   33 A1   22 B1                 
  0.121   0.129   0.131   0.148   0.150   0.152   0.164   0.178
 34 A1   35 A1   23 B1   36 A1   24 B1   37 A1   38 A1   25 B1                 
  0.183   0.201   0.213   0.239   0.242   0.247   0.261   0.267
 16 B2   26 B1   39 A1   40 A1   27 B1   41 A1   42 A1   28 B1                 
  0.313   0.332   0.341   0.342   0.445   0.452   0.475   0.500
 43 A1   29 B1   44 A1   30 B1   45 A1   31 B1   32 B1   46 A1                 
  0.507   0.534   0.545   0.549   0.552   0.557   0.587   0.591
 17 B2   47 A1   33 B1   18 B2   48 A1   34 B1    7 A2   19 B2                 
  0.613   0.614   0.629   0.636   0.695   0.696   0.703   0.737
 35 B1   49 A1   20 B2    8 A2   21 B2   50 A1   51 A1   52 A1                 
  0.739   0.754   0.777   0.823   0.838   0.847   0.869   0.877
 36 B1   37 B1   53 A1   38 B1   54 A1   55 A1   39 B1   22 B2                 
  0.878   0.897   0.900   0.932   0.969   0.980   0.990   1.021
 56 A1   40 B1   57 A1   41 B1    9 A2   58 A1   42 B1   23 B2                 
  1.026   1.048   1.096   1.100   1.145   1.163   1.255   1.278
 10 A2   59 A1   60 A1   11 A2   24 B2   12 A2   61 A1   62 A1                 
  1.295   1.379   1.469   1.513   1.557   1.571   1.619   1.620
 43 B1   25 B2   63 A1   44 B1   64 A1   45 B1   13 A2   26 B2                 
  1.637   1.682   1.698   1.705   1.756   1.787   1.804   1.830
 65 A1   27 B2   66 A1   46 B1   67 A1   47 B1   28 B2   14 A2                 
  1.896   1.957   1.996   2.002   2.009   2.029   2.029   2.076
 48 B1   68 A1   29 B2   15 A2   49 B1   69 A1   50 B1   30 B2                 
  2.106   2.138   2.148   2.182   2.368   2.407   2.424   2.516
 70 A1   51 B1   16 A2   71 A1   31 B2   52 B1   17 A2   32 B2                 
  2.537   2.574   2.595   2.610   2.665   2.710   2.738   2.773
 72 A1   53 B1   73 A1   54 B1   55 B1   74 A1   75 A1   76 A1                 
  2.802   2.803   2.826   2.840   2.844   2.846   2.971   2.974
 77 A1   56 B1   78 A1   57 B1   79 A1   33 B2   18 A2   34 B2                 
  2.990   2.997   3.061   3.066   3.096   3.248   3.340   3.427
 58 B1   80 A1   19 A2   35 B2   59 B1   36 B2   60 B1   81 A1                 
  3.538   3.549   3.673   3.698   3.800   3.968   4.158   4.228
 61 B1   82 A1   62 B1   83 A1   84 A1   85 A1   63 B1   86 A1                 
  4.282   4.292   4.897   5.032   5.215   5.219   5.534   5.541
 87 A1   64 B1   88 A1   65 B1   66 B1   89 A1   90 A1   67 B1                 
  5.958  10.378  20.409  20.464  20.477  20.604  20.608  20.892
 91 A1   92 A1   93 A1   68 B1   94 A1   95 A1   69 B1   96 A1                 
 26.631  26.892  27.354  79.975  80.037  80.048  80.160  80.161
 37 B2   70 B1   97 A1   98 A1   71 B1   99 A1   72 B1  100 A1                 
 80.381 219.243 321.816 321.874 321.882 321.978 321.982 322.160
101 A1  102 A1  103 A1   73 B1  104 A1   74 B1  105 A1  106 A1                 
*******1431.4371431.4431431.5251431.5301431.6788749.6238749.666
107 A1   75 B1  108 A1   76 B1  109 A1  110 A1  111 A1   77 B1                 
*******8749.7388749.7458749.864
112 A1   78 B1  113 A1  114 A1                                                 
 --------------------------------------------------------------

          Ground-State Mulliken Net Atomic Charges

     Atom                 Charge (a.u.)    Spin (a.u.)
  --------------------------------------------------------
      1 H                     0.296979      -0.035681
      2 C                    -0.297264       0.540250
      3 C                    -0.201242       0.450869
      4 H                     0.333367      -0.033445
      5 C                    -0.402971      -0.343228
      6 H                     0.265007       0.015521
      7 C                    -0.201242       0.450869
      8 H                     0.333367      -0.033445
      9 C                    -0.297264       0.540250
     10 H                     0.296979      -0.035681
     11 C                     0.169269      -0.500771
     12 Cl                    0.705015      -0.015509
  --------------------------------------------------------
  Sum of atomic charges =     1.000000
  Sum of spin   charges =     1.000000

 -----------------------------------------------------------------
                    Cartesian Multipole Moments
 -----------------------------------------------------------------
    Charge (ESU x 10^10)
                 4.8032
    Dipole Moment (Debye)
         X       0.0000      Y       0.0000      Z      -5.2419
       Tot       5.2419
    Quadrupole Moments (Debye-Ang)
        XX     -28.8022     XY       0.0000     YY     -47.5745
        XZ      -0.0000     YZ       0.0000     ZZ     -31.3100
    Octopole Moments (Debye-Ang^2)
       XXX      -0.0000    XXY      -0.0000    XYY       0.0000
       YYY      -0.0000    XXZ     -12.5367    XYZ       0.0000
       YYZ       3.8583    XZZ       0.0000    YZZ       0.0000
       ZZZ     -20.6499
    Hexadecapole Moments (Debye-Ang^3)
      XXXX    -205.9063   XXXY       0.0000   XXYY     -57.1594
Archival summary:
1\1\n-62-29-28\SP\ProcedureUnspecified\BasisUnspecified\l165(1+,2)\malop\SatDec823:50:132018SatDec823:50:132018\0\\#,ProcedureUnspecified,BasisUnspecified,\\1,2\Cl\C,1,1.73093\C,2,1.39121,1,119.398\H,3,1.08039,2,119.798,1,0,0\C,2,1.39121,1,119.398,3,-180,0\H,5,1.08039,2,119.798,1,-0,0\C,3,1.39191,2,119.079,1,180,0\H,7,1.08135,3,119.367,2,180,0\C,5,1.39191,2,119.079,1,180,0\H,9,1.08135,5,119.367,2,180,0\C,7,1.39245,3,120.451,2,0,0\H,11,1.08085,7,120.132,3,180,0\\HF=-689.375982\\@

 Total job time:  149640.85s(wall), 354091.39s(cpu) 
 Sat Dec  8 23:50:13 2018

        *************************************************************
        *                                                           *
        *  Thank you very much for using Q-Chem.  Have a nice day.  *
        *                                                           *
        *************************************************************


      XYYY       0.0000   YYYY     -52.3602   XXXZ       0.0000
      XXYZ       0.0000   XYYZ      -0.0000   YYYZ       0.0000
      XXZZ    -146.0062   XYZZ      -0.0000   YYZZ    -152.4523
      XZZZ      -0.0000   YZZZ       0.0000   ZZZZ    -655.9125
 -----------------------------------------------------------------
