n-62-23-25 10.66.23
Q-Chem Developer Version! Running on 10.66.23.*
                  Welcome to Q-Chem
     A Quantum Leap Into The Future Of Chemistry


 Q-Chem 5.1, Q-Chem, Inc., Pleasanton, CA (2018)

 Yihan Shao,  Zhengting Gan,  E. Epifanovsky,  A. T. B. Gilbert,  M. Wormit,  
 J. Kussmann,  A. W. Lange,  A. Behn,  Jia Deng,  Xintian Feng,  D. Ghosh,  
 M. Goldey,  P. R. Horn,  L. D. Jacobson,  I. Kaliman,  T. Kus,  A. Landau,  
 Jie Liu,  E. I. Proynov,  R. M. Richard,  R. P. Steele,  E. J. Sundstrom,  
 H. L. Woodcock III,  P. M. Zimmerman,  D. Zuev,  B. Albrecht,  E. Alguire,  
 S. A. Baeppler,  D. Barton,  Z. Benda,  Y. A. Bernard,  E. J. Berquist,  
 K. B. Bravaya,  H. Burton,  D. Casanova,  Chun-Min Chang,  Yunqing Chen,  
 A. Chien,  K. D. Closser,  M. P. Coons,  S. Coriani,  S. Dasgupta,  
 A. L. Dempwolff,  M. Diedenhofen,  Hainam Do,  R. G. Edgar,  Po-Tung Fang,  
 S. Faraji,  S. Fatehi,  Qingguo Feng,  K. D. Fenk,  J. Fosso-Tande,  
 Qinghui Ge,  A. Ghysels,  G. Gidofalvi,  J. Gomes,  J. Gonthier,  A. Gunina,  
 M. W. D. Hanson-Heine,  P. H. P. Harbach,  A. W. Hauser,  J. E. Herr,  
 E. G. Hohenstein,  Z. C. Holden,  Kerwin Hui,  T.-C. Jagau,  Hyunjun Ji,  
 B. Kaduk,  K. Khistyaev,  Jaehoon Kim,  P. Klunzinger,  K. Koh,  
 D. Kosenkov,  L. Koulias,  T. Kowalczyk,  C. M. Krauter,  A. Kunitsa,  
 Ka Un Lao,  A. Laurent,  K. V. Lawler,  Joonho Lee,  D. Lefrancois,  
 S. Lehtola,  D. S. Levine,  Yi-Pei Li,  You-Sheng Lin,  Fenglai Liu,  
 E. Livshits,  A. Luenser,  P. Manohar,  E. Mansoor,  S. F. Manzer,  
 Shan-Ping Mao,  Yuezhi Mao,  N. Mardirossian,  A. V. Marenich,  
 T. Markovich,  L. A. Martinez-Martinez,  S. A. Maurer,  N. J. Mayhall,  
 S. C. McKenzie,  J.-M. Mewes,  A. F. Morrison,  J. W. Mullinax,  K. Nanda,  
 T. S. Nguyen-Beck,  R. Olivares-Amaya,  J. A. Parkhill,  T. M. Perrine,  
 F. Plasser,  P. Pokhilko,  S. Prager,  A. Prociuk,  E. Ramos,  D. R. Rehn,  
 F. Rob,  M. Schneider,  N. Sergueev,  S. M. Sharada,  S. Sharma,  
 D. W. Small,  T. Stauch,  T. Stein,  Yu-Chuan Su,  A. J. W. Thom,  
 A. Tkatchenko,  T. Tsuchimochi,  N. M. Tubman,  L. Vogt,  M. L. Vidal,  
 O. Vydrov,  M. A. Watson,  J. Wenzel,  M. de Wergifosse,  T. A. Wesolowski,  
 A. White,  J. Witte,  A. Yamada,  Jun Yang,  K. Yao,  S. Yeganeh,  
 S. R. Yost,  Zhi-Qiang You,  A. Zech,  Igor Ying Zhang,  Xing Zhang,  
 Yan Zhao,  Ying Zhu,  B. R. Brooks,  G. K. L. Chan,  C. J. Cramer,  
 M. S. Gordon,  W. J. Hehre,  A. Klamt,  M. W. Schmidt,  C. D. Sherrill,  
 D. G. Truhlar,  A. Aspuru-Guzik,  R. Baer,  A. T. Bell,  N. A. Besley,  
 Jeng-Da Chai,  R. A. DiStasio Jr.,  A. Dreuw,  B. D. Dunietz,  
 T. R. Furlani,  Chao-Ping Hsu,  Yousung Jung,  Jing Kong,  D. S. Lambrecht,  
 WanZhen Liang,  C. Ochsenfeld,  V. A. Rassolov,  L. V. Slipchenko,  
 J. E. Subotnik,  T. Van Voorhis,  J. M. Herbert,  A. I. Krylov,  
 P. M. W. Gill,  M. Head-Gordon

 Contributors to earlier versions of Q-Chem not listed above: 
 R. D. Adamson,  B. Austin,  J. Baker,  G. J. O. Beran,  K. Brandhorst,  
 S. T. Brown,  E. F. C. Byrd,  A. K. Chakraborty,  C.-L. Cheng,  
 Siu Hung Chien,  D. M. Chipman,  D. L. Crittenden,  H. Dachsel,  
 R. J. Doerksen,  A. D. Dutoi,  L. Fusti-Molnar,  W. A. Goddard III,  
 A. Golubeva-Zadorozhnaya,  S. R. Gwaltney,  G. Hawkins,  A. Heyden,  
 S. Hirata,  G. Kedziora,  F. J. Keil,  C. Kelley,  Jihan Kim,  R. A. King,  
 R. Z. Khaliullin,  P. P. Korambath,  W. Kurlancheek,  A. M. Lee,  M. S. Lee,  
 S. V. Levchenko,  Ching Yeh Lin,  D. Liotard,  R. C. Lochan,  I. Lotan,  
 P. E. Maslen,  N. Nair,  D. P. O'Neill,  D. Neuhauser,  E. Neuscamman,  
 C. M. Oana,  R. Olson,  B. Peters,  R. Peverati,  P. A. Pieniazek,  
 Y. M. Rhee,  J. Ritchie,  M. A. Rohrdanz,  E. Rosta,  N. J. Russ,  
 H. F. Schaefer III,  N. E. Schultz,  N. Shenvi,  A. C. Simmonett,  A. Sodt,  
 D. Stuck,  K. S. Thanthiriwatte,  V. Vanovschi,  Tao Wang,  A. Warshel,  
 C. F. Williams,  Q. Wu,  X. Xu,  W. Zhang

 Please cite Q-Chem as follows:
 Y. Shao et al., Mol. Phys. 113, 184-215 (2015)
 DOI: 10.1080/00268976.2014.952696

 Q-Chem 5.1.0 for Intel X86 EM64T Linux

 Parts of Q-Chem use Armadillo 8.300.2 (Tropical Shenanigans).
 http://arma.sourceforge.net/

 Q-Chem begins on Tue Oct 23 14:33:51 2018  

Host: 
0

     Scratch files written to /work1/malop/qc_7366733.hnode2//

Checking the input file for inconsistencies... 	...done.

--------------------------------------------------------------
User input:
--------------------------------------------------------------
$comment
Optimized Cl-Bz, XAS, 
6-311(2+,+)G** with uncontacted core on carbon only
$end

$molecule
0 1
 H        -2.1400320233    0.0000000000    0.5090177858
 C        -1.2120583232    0.0000000000   -0.0442490642
 C        -1.2042956497    0.0000000000   -1.4361358281
 H        -2.1437187877    0.0000000000   -1.9716770234
 C         0.0000000000    0.0000000000   -2.1351330277
 H         0.0000000000    0.0000000000   -3.2159870334
 C         1.2042956497    0.0000000000   -1.4361358281
 H         2.1437187877    0.0000000000   -1.9716770234
 C         1.2120583232    0.0000000000   -0.0442490642
 H         2.1400320233    0.0000000000    0.5090177858
 C         0.0000000000    0.0000000000    0.6386615242
 Cl        0.0000000000    0.0000000000    2.3695929760
$end

$rem
   JOB_TYPE  =  SP
   BASIS  =  general
   METHOD  =  EOM-CCSD
   CVS_EE_STATES = [15,0,15,15]
   eom_preconv_singles = true
   n_frozen_core = 7
   cc_trans_prop = true
   use_libqints = 1   !use new int library (will be def in trunk)
   cc_memory = 100000
   EOM_DAVIDSON_MAX_ITER 200
   EOM_DAVIDSON_MAXVECTORS = 1000
   eom_davidson_convergence = 4
   eom_shift = 10000
$end

$basis
H    0
S    3    1.000000
   3.38650000E+01    2.54938000E-02 
   5.09479000E+00    1.90373000E-01 
   1.15879000E+00    8.52161000E-01 
S    1    1.000000
   3.25840000E-01    1.00000000E+00 
S    1    1.000000
   1.02741000E-01    1.00000000E+00 
S    1    1.000000
   3.60000000E-02    1.00000000E+00 
P    1    1.000000
   7.50000000E-01    1.00000000E+00 
****
C    0
S    1    1.000000
   4.56324000E+03    1.96665000E-03 
S    1    1.000000
   6.82024000E+02    1.52306000E-02 
S    1    1.000000
   1.54973000E+02    7.61269000E-02 
S    1    1.000000
   4.44553000E+01    2.60801000E-01 
S    1    1.000000
   1.30290000E+01    6.16462000E-01 
S    1    1.000000
   1.82773000E+00    2.21006000E-01 
SP   3    1.000000
   2.09642000E+01    1.14660000E-01   4.02487000E-02 
   4.80331000E+00    9.19999000E-01   2.37594000E-01 
   1.45933000E+00   -3.03068000E-03   8.15854000E-01 
SP   1    1.000000
   4.83456000E-01    1.00000000E+00   1.00000000E+00 
SP   1    1.000000
   1.45585000E-01    1.00000000E+00   1.00000000E+00 
SP   1    1.000000
   4.38000000E-02    1.00000000E+00   1.00000000E+00 
SP   1    1.000000
   1.31927711E-02    1.00000000E+00   1.00000000E+00 
D    1    1.000000
   6.26000000E-01    1.00000000E+00 
****
Cl   0
S    6    1.000000
   1.05819000E+05    7.38000000E-04 
   1.58720000E+04    5.71800000E-03 
   3.61965000E+03    2.94950000E-02 
   1.03080000E+03    1.17286000E-01 
   3.39908000E+02    3.62949000E-01 
   1.24538000E+02    5.84149000E-01 
S    3    1.000000
   1.24538000E+02    1.34177000E-01 
   4.95135000E+01    6.24250000E-01 
   2.08056000E+01    2.91756000E-01 
S    1    1.000000
   6.58346000E+00    1.00000000E+00 
S    1    1.000000
   2.56468000E+00    1.00000000E+00 
S    1    1.000000
   5.59763000E-01    1.00000000E+00 
S    1    1.000000
   1.83273000E-01    1.00000000E+00 
P    5    1.000000
   5.89776000E+02    2.39100000E-03 
   1.39849000E+02    1.85040000E-02 
   4.51413000E+01    8.13770000E-02 
   1.68733000E+01    2.21552000E-01 
   6.74110000E+00    7.72569000E-01 
P    2    1.000000
   6.74110000E+00   -1.57224400E+00 
   2.77152000E+00    9.92389000E-01 
P    1    1.000000
   1.02387000E+00    1.00000000E+00 
P    1    1.000000
   3.81368000E-01    1.00000000E+00 
P    1    1.000000
   1.09437000E-01    1.00000000E+00 
SP   1    1.000000
   4.83000000E-02    1.00000000E+00   1.00000000E+00 
SP   1    1.000000
   1.45481928E-02    1.00000000E+00   1.00000000E+00 
D    1    1.000000
   7.50000000E-01    1.00000000E+00 
****
$end

--------------------------------------------------------------
 ----------------------------------------------------------------
             Standard Nuclear Orientation (Angstroms)
    I     Atom           X                Y                Z
 ----------------------------------------------------------------
    1      H      -2.1400320233     0.0000000000     0.3814604176
    2      C      -1.2120583232     0.0000000000    -0.1718064324
    3      C      -1.2042956497     0.0000000000    -1.5636931963
    4      H      -2.1437187877     0.0000000000    -2.0992343916
    5      C      -0.0000000000    -0.0000000000    -2.2626903959
    6      H      -0.0000000000    -0.0000000000    -3.3435444016
    7      C       1.2042956497    -0.0000000000    -1.5636931963
    8      H       2.1437187877    -0.0000000000    -2.0992343916
    9      C       1.2120583232    -0.0000000000    -0.1718064324
   10      H       2.1400320233    -0.0000000000     0.3814604176
   11      C       0.0000000000     0.0000000000     0.5111041560
   12      Cl      0.0000000000     0.0000000000     2.2420356078
 ----------------------------------------------------------------
 Molecular Point Group                 C2v   NOp =  4
 Largest Abelian Subgroup              C2v   NOp =  4
 Nuclear Repulsion Energy =   316.4076139427 hartrees
 There are       29 alpha and       29 beta electrons

 Q-Chem warning in module forms1/BasisType.C, line 1685:

 Setting pure/cartesian flag to 2111 for general basis


 Requested basis set is non-standard
 There are 111 shells and 255 basis functions
MEM_TOTAL is adjusted to CC_MEMORY + MEM_STATIC!
 Total memory of 100192MB is distributed as follows: 
   QALLOC including MEM_STATIC uses 192MB
   MEM_STATIC is set to 192MB
   CCMAN JOB total memory use is  100000MB
 Warning: actual memory use might exceed 100192MB

 Total QAlloc Memory Limit    192 MB
 Mega-Array Size       188 MB
 MEM_STATIC part       192 MB

                       Distance Matrix (Angstroms)
             H (  1)   C (  2)   C (  3)   H (  4)   C (  5)   H (  6)
   C (  2)  1.080389
   C (  3)  2.158524  1.391908
   H (  4)  2.480698  2.140787  1.081351
   C (  5)  3.401657  2.416791  1.392453  2.149941
   H (  6)  4.295975  3.395439  2.148999  2.478677  1.080854
   C (  7)  3.868869  2.788569  2.408591  3.390576  1.392453  2.148999
   H (  8)  4.950189  3.869912  3.390576  4.287438  2.149941  2.478677
   C (  9)  3.397442  2.424117  2.788569  3.869912  2.416791  3.395439
   H ( 10)  4.280064  3.397442  3.868869  4.950189  3.401657  4.295975
   C ( 11)  2.143955  1.391205  2.398981  3.377780  2.773795  3.854649
   Cl( 12)  2.835750  2.701059  3.991729  4.841710  4.504726  5.585580
             C (  7)   H (  8)   C (  9)   H ( 10)   C ( 11)
   H (  8)  1.081351
   C (  9)  1.391908  2.140787
   H ( 10)  2.158524  2.480698  1.080389
   C ( 11)  2.398981  3.377780  1.391205  2.143955
   Cl( 12)  3.991729  4.841710  2.701059  2.835750  1.730931
 
 A cutoff of  1.0D-14 yielded   5292 shell pairs
 There are     31225 function pairs (     33033 Cartesian)
 
 -------------------------------------------------------
 OpenMP Integral Computing Module                       
 Release: version 1.0, May 2013, Q-Chem Inc. Pittsburgh 
 -------------------------------------------------------
 Integral Job Info:
 Integral job number is                      11
 Integral operator is                         1
 short-range coefficients                     0
 long-range coefficients              100000000
 Omega coefficients                           0
 if combine SR and LR in K                    0
 Integral screening is                        0
 Integral computing path is                   2
 max size of driver memory is            800000
 size of driver memory is                593474
 size of scratch memory is              8114252
 max col of scratch BK array               1296
 max len of scratch array in speh3          155
 max len of scratch index in speh4           18
 max int batch size is                      520
 min int batch size is                       52
 fixed nKL is                                52
 max L of basis functions is                  2
 order of int derivative is                   0
 number of shells is                        111
 number of basis is                         262
 number of cartesian basis is               262
 number of contracted shell pairs          5292
 number of primitive shell pairs           7807
 maxK2 (contraction) of shell pair           36
 max number of K2 of shell pair               1
 max number of CS2 of shell pair           1511
 max number of PS2 of shell pair           1511
 mem total for path MDJ                  543004
 -------------------------------------------------------
 Smallest overlap matrix eigenvalue = 1.05E-08
 Linear dependence detected in AO basis
 Number of orthogonalized atomic orbitals = 248
 Maximum deviation from orthogonality = 1.435E-10

 Scale SEOQF with 1.000000e-01/1.000000e-01/1.000000e-01

 Standard Electronic Orientation quadrupole field applied
 Nucleus-field energy     =    -0.0000000161 hartrees
 Guess MOs from core Hamiltonian diagonalization

 -----------------------------------------------------------------------
  General SCF calculation program by
  Eric Jon Sundstrom, Paul Horn, Yuezhi Mao, Dmitri Zuev, Alec White,
  David Stuck, Shaama M.S., Shane Yost, Joonho Lee, David Small,
  Daniel Levine, Susi Lehtola, Hugh Burton, Evgeny Epifanovsky
 -----------------------------------------------------------------------
 Hartree-Fock
 A restricted SCF calculation will be
 performed using DIIS
 SCF converges when DIIS error is below 1.0e-08
 ---------------------------------------
  Cycle       Energy         DIIS error
 ---------------------------------------
    1    -581.7445104550      1.42e-01  
    2    -440.3034823699      1.06e-01  
    3    -555.5627249094      9.56e-02  
    4    -658.0889888963      5.38e-02  
    5    -636.2863522527      7.69e-02  
    6    -687.2658852233      1.93e-02  
    7    -689.1767753253      6.87e-03  
    8    -689.6377416865      1.97e-03  
    9    -689.6740335989      5.51e-04  
   10    -689.6786122584      2.42e-04  
   11    -689.6803167928      1.20e-04  
   12    -689.6807896574      6.47e-05  
   13    -689.6809133925      2.22e-05  
   14    -689.6809378887      5.42e-06  
   15    -689.6809387689      2.23e-06  
   16    -689.6809388714      5.62e-07  
   17    -689.6809388768      8.83e-08  
   18    -689.6809388769      2.43e-08  
   19    -689.6809388769      4.85e-09  Convergence criterion met
 ---------------------------------------
 SCF time:   CPU 331.12s  wall 33.00s 
 SCF   energy in the final basis set =     -689.6809388769


 ------------------------------------------------------------------------------

   CCMAN2: suite of methods based on coupled cluster
           and equation of motion theories.

   Components:
   * libvmm-1.3-trunk
     by Evgeny Epifanovsky, Ilya Kaliman.
   * libtensor-2.5-trunk
     by Evgeny Epifanovsky, Michael Wormit, Dmitry Zuev, Sam Manzer, 
        Ilya Kaliman.
   * libcc-2.5-trunk
     by Evgeny Epifanovsky, Arik Landau, Tomasz Kus, Kirill Khistyaev, 
        Dmitry Zuev, Prashant Manohar, Xintian Feng, Anna Krylov, 
        Matthew Goldey, Alec White, Thomas Jagau, Kaushik Nanda, 
        Anastasia Gunina, Alexander Kunitsa, Joonho Lee.

   CCMAN original authors:
   Anna I. Krylov, C. David Sherrill, Steven R. Gwaltney,
   Edward F. C. Byrd (2000)
   Sergey V. Levchenko, Lyudmila V. Slipchenko, Tao Wang,
   Ana-Maria C. Cristian (2003)
   Piotr A. Pieniazek, C. Melania Oana, Evgeny Epifanovsky (2007)
   Prashant Manohar (2009)

 ------------------------------------------------------------------------------


 Calculation will run on 10 cores with 100000MB of RAM.

 
 Alpha MOs, Restricted
 -- Occupied --                  
-104.84  -11.31  -11.25  -11.25  -11.25  -11.25  -11.25  -10.57
  1 A1    2 A1    3 A1    1 B1    4 A1    2 B1    5 A1    6 A1                 
 -8.034  -8.031  -8.031  -1.196  -1.124  -1.036  -1.000  -0.850
  7 A1    3 B1    1 B2    8 A1    9 A1    4 B1   10 A1    5 B1                 
 -0.823  -0.715  -0.651  -0.651  -0.607  -0.593  -0.547  -0.520
 11 A1   12 A1    6 B1   13 A1    7 B1   14 A1    2 B2    8 B1                 
 -0.515  -0.471  -0.456  -0.354  -0.338
 15 A1    3 B2    9 B1    1 A2    4 B2                                         
 -- Virtual --                   
  0.014   0.020   0.021   0.032   0.032   0.033   0.043   0.044
 16 A1   10 B1   17 A1    5 B2   18 A1   11 B1    2 A2    6 B2                 
  0.045   0.048   0.054   0.055   0.056   0.063   0.063   0.065
 19 A1   20 A1   12 B1    3 A2    7 B2   21 A1    8 B2   13 B1                 
  0.068   0.069   0.070   0.073   0.074   0.078   0.091   0.096
 22 A1    9 B2   14 B1   23 A1   15 B1   24 A1   25 A1   16 B1                 
  0.100   0.102   0.104   0.106   0.126   0.163   0.169   0.172
 26 A1    4 A2   10 B2   17 B1   27 A1   11 B2   28 A1   18 B1                 
  0.176   0.180   0.181   0.192   0.211   0.213   0.214   0.222
 29 A1    5 A2   12 B2   30 A1   19 B1   31 A1   13 B2   32 A1                 
  0.222   0.229   0.232   0.235   0.238   0.243   0.244   0.247
 20 B1   14 B2    6 A2   21 B1   33 A1   15 B2   34 A1   22 B1                 
  0.252   0.264   0.280   0.291   0.295   0.303   0.314   0.330
 23 B1   35 A1   36 A1   24 B1   25 B1   37 A1   38 A1   26 B1                 
  0.357   0.366   0.378   0.414   0.418   0.432   0.441   0.491
 16 B2   39 A1   40 A1   41 A1   27 B1   42 A1   28 B1   43 A1                 
  0.500   0.509   0.509   0.620   0.631   0.643   0.652   0.662
 29 B1   44 A1   30 B1   45 A1   31 B1   32 B1   17 B2   46 A1                 
  0.720   0.730   0.742   0.743   0.745   0.772   0.782   0.794
 47 A1   33 B1   48 A1   18 B2   34 B1    7 A2   19 B2   35 B1                 
  0.821   0.822   0.823   0.881   0.884   0.898   0.934   0.936
 49 A1    8 A2   20 B2   50 A1   21 B2   51 A1   52 A1   36 B1                 
  0.955   0.973   1.018   1.024   1.039   1.060   1.067   1.082
 37 B1   53 A1   38 B1   54 A1   55 A1   39 B1   22 B2   56 A1                 
  1.095   1.100   1.133   1.139   1.173   1.192   1.221   1.225
 57 A1   40 B1   41 B1    9 A2   58 A1   42 B1   59 A1   23 B2                 
  1.235   1.273   1.309   1.352   1.376   1.443   1.467   1.475
 10 A2   60 A1   11 A2   24 B2   12 A2   61 A1   43 B1   62 A1                 
  1.581   1.663   1.728   1.776   1.787   1.824   1.831   1.844
 25 B2   63 A1   44 B1   64 A1   45 B1   26 B2   13 A2   65 A1                 
  1.892   1.908   1.909   1.963   1.999   2.008   2.042   2.103
 27 B2   66 A1   46 B1   67 A1   47 B1   28 B2   14 A2   48 B1                 
  2.168   2.218   2.220   2.221   2.236   2.243   2.287   2.323
 68 A1   49 B1   15 A2   29 B2   50 B1   69 A1   30 B2   70 A1                 
  2.352   2.368   2.392   2.579   2.611   2.647   2.684   2.748
 51 B1   16 A2   71 A1   31 B2   52 B1   17 A2   32 B2   72 A1                 
  2.777   2.798   2.810   2.867   2.914   2.935   2.981   2.997
 53 B1   73 A1   54 B1   55 B1   74 A1   75 A1   76 A1   77 A1                 
  3.009   3.026   3.038   3.043   3.066   3.191   3.194   3.205
 56 B1   78 A1   79 A1   57 B1   33 B2   34 B2   18 A2   58 B1                 
  3.210   3.283   3.288   3.321   3.473   3.567   3.631   3.757
 80 A1   35 B2   19 A2   59 B1   36 B2   60 B1   81 A1   61 B1                 
  3.782   3.902   3.919   4.022   4.189   4.384   4.442   4.510
 82 A1   62 B1   83 A1   84 A1   85 A1   63 B1   86 A1   87 A1                 
  4.516   5.123   5.263   5.442   5.447   5.754   5.779   6.187
 64 B1   88 A1   65 B1   89 A1   66 B1   90 A1   67 B1   91 A1                 
 10.544  20.635  20.695  20.708  20.824  20.852  21.124  26.795
 92 A1   93 A1   94 A1   68 B1   95 A1   69 B1   96 A1   37 B2                 
 27.056  27.522  80.200  80.266  80.282  80.380  80.405  80.613
 70 B1   97 A1   98 A1   99 A1   71 B1  100 A1   72 B1  101 A1                 
219.412 322.039 322.101 322.118 322.201 322.223 322.3901431.607
102 A1  103 A1  104 A1   73 B1  105 A1   74 B1  106 A1  107 A1                 
*******1431.6801431.7491431.7681431.9088749.8448749.8938749.909
108 A1   75 B1  109 A1   76 B1  110 A1  111 A1  112 A1   77 B1                 
*******8749.9818750.093
113 A1   78 B1  114 A1                                                         
 
 Beta MOs, Restricted
 -- Occupied --                  
-104.84  -11.31  -11.25  -11.25  -11.25  -11.25  -11.25  -10.57
  1 A1    2 A1    3 A1    1 B1    4 A1    2 B1    5 A1    6 A1                 
 -8.034  -8.031  -8.031  -1.196  -1.124  -1.036  -1.000  -0.850
  7 A1    3 B1    1 B2    8 A1    9 A1    4 B1   10 A1    5 B1                 
 -0.823  -0.715  -0.651  -0.651  -0.607  -0.593  -0.547  -0.520
 11 A1   12 A1    6 B1   13 A1    7 B1   14 A1    2 B2    8 B1                 
 -0.515  -0.471  -0.456  -0.354  -0.338
 15 A1    3 B2    9 B1    1 A2    4 B2                                         
 -- Virtual --                   
  0.014   0.020   0.021   0.032   0.032   0.033   0.043   0.044
 16 A1   10 B1   17 A1    5 B2   18 A1   11 B1    2 A2    6 B2                 
  0.045   0.048   0.054   0.055   0.056   0.063   0.063   0.065
 19 A1   20 A1   12 B1    3 A2    7 B2   21 A1    8 B2   13 B1                 
  0.068   0.069   0.070   0.073   0.074   0.078   0.091   0.096
 22 A1    9 B2   14 B1   23 A1   15 B1   24 A1   25 A1   16 B1                 
  0.100   0.102   0.104   0.106   0.126   0.163   0.169   0.172
 26 A1    4 A2   10 B2   17 B1   27 A1   11 B2   28 A1   18 B1                 
  0.176   0.180   0.181   0.192   0.211   0.213   0.214   0.222
 29 A1    5 A2   12 B2   30 A1   19 B1   31 A1   13 B2   32 A1                 
  0.222   0.229   0.232   0.235   0.238   0.243   0.244   0.247
 20 B1   14 B2    6 A2   21 B1   33 A1   15 B2   34 A1   22 B1                 
  0.252   0.264   0.280   0.291   0.295   0.303   0.314   0.330
 23 B1   35 A1   36 A1   24 B1   25 B1   37 A1   38 A1   26 B1                 
  0.357   0.366   0.378   0.414   0.418   0.432   0.441   0.491
 16 B2   39 A1   40 A1   41 A1   27 B1   42 A1   28 B1   43 A1                 
  0.500   0.509   0.509   0.620   0.631   0.643   0.652   0.662
 29 B1   44 A1   30 B1   45 A1   31 B1   32 B1   17 B2   46 A1                 
  0.720   0.730   0.742   0.743   0.745   0.772   0.782   0.794
 47 A1   33 B1   48 A1   18 B2   34 B1    7 A2   19 B2   35 B1                 
  0.821   0.822   0.823   0.881   0.884   0.898   0.934   0.936
 49 A1    8 A2   20 B2   50 A1   21 B2   51 A1   52 A1   36 B1                 
  0.955   0.973   1.018   1.024   1.039   1.060   1.067   1.082
 37 B1   53 A1   38 B1   54 A1   55 A1   39 B1   22 B2   56 A1                 
  1.095   1.100   1.133   1.139   1.173   1.192   1.221   1.225
 57 A1   40 B1   41 B1    9 A2   58 A1   42 B1   59 A1   23 B2                 
  1.235   1.273   1.309   1.352   1.376   1.443   1.467   1.475
 10 A2   60 A1   11 A2   24 B2   12 A2   61 A1   43 B1   62 A1                 
  1.581   1.663   1.728   1.776   1.787   1.824   1.831   1.844
 25 B2   63 A1   44 B1   64 A1   45 B1   26 B2   13 A2   65 A1                 
  1.892   1.908   1.909   1.963   1.999   2.008   2.042   2.103
 27 B2   66 A1   46 B1   67 A1   47 B1   28 B2   14 A2   48 B1                 
  2.168   2.218   2.220   2.221   2.236   2.243   2.287   2.323
 68 A1   49 B1   15 A2   29 B2   50 B1   69 A1   30 B2   70 A1                 
  2.352   2.368   2.392   2.579   2.611   2.647   2.684   2.748
 51 B1   16 A2   71 A1   31 B2   52 B1   17 A2   32 B2   72 A1                 
  2.777   2.798   2.810   2.867   2.914   2.935   2.981   2.997
 53 B1   73 A1   54 B1   55 B1   74 A1   75 A1   76 A1   77 A1                 
  3.009   3.026   3.038   3.043   3.066   3.191   3.194   3.205
 56 B1   78 A1   79 A1   57 B1   33 B2   34 B2   18 A2   58 B1                 
  3.210   3.283   3.288   3.321   3.473   3.567   3.631   3.757
 80 A1   35 B2   19 A2   59 B1   36 B2   60 B1   81 A1   61 B1                 
  3.782   3.902   3.919   4.022   4.189   4.384   4.442   4.510
 82 A1   62 B1   83 A1   84 A1   85 A1   63 B1   86 A1   87 A1                 
  4.516   5.123   5.263   5.442   5.447   5.754   5.779   6.187
 64 B1   88 A1   65 B1   89 A1   66 B1   90 A1   67 B1   91 A1                 
 10.544  20.635  20.695  20.708  20.824  20.852  21.124  26.795
 92 A1   93 A1   94 A1   68 B1   95 A1   69 B1   96 A1   37 B2                 
 27.056  27.522  80.200  80.266  80.282  80.380  80.405  80.613
 70 B1   97 A1   98 A1   99 A1   71 B1  100 A1   72 B1  101 A1                 
219.412 322.039 322.101 322.118 322.201 322.223 322.3901431.607
102 A1  103 A1  104 A1   73 B1  105 A1   74 B1  106 A1  107 A1                 
*******1431.6801431.7491431.7681431.9088749.8448749.8938749.909
108 A1   75 B1  109 A1   76 B1  110 A1  111 A1  112 A1   77 B1                 
*******8749.9818750.093
113 A1   78 B1  114 A1                                                         

 Occupation and symmetry of molecular orbitals

 Point group: C2v (4 irreducible representations).

                           A1   A2   B1   B2    All 
 ----------------------------------------------------
 All molecular orbitals:
  - Alpha                  114  19   78   37    248 
  - Beta                   114  19   78   37    248 
 ----------------------------------------------------
 Alpha orbitals:
  - Frozen occupied        5    0    2    0     7   
  - Active occupied        10   1    7    4     22  
  - Active virtual         99   18   69   33    219 
  - Frozen virtual         0    0    0    0     0   
 ----------------------------------------------------
 Beta orbitals:
  - Frozen occupied        5    0    2    0     7   
  - Active occupied        10   1    7    4     22  
  - Active virtual         99   18   69   33    219 
  - Frozen virtual         0    0    0    0     0   
 ----------------------------------------------------

 Import integrals:   CPU 0.00 s  wall 0.00 s

 Import integrals:   CPU 2605.89 s  wall 709.47 s

 MP2 amplitudes:   CPU 6.19 s  wall 5.01 s

           CCSD T amplitudes will be solved using DIIS.

           Start     Size      MaxIter   EConv     TConv     
           3         7         100       1.00e-06  1.00e-04  
 ------------------------------------------------------------------------------
           Energy (a.u.)   Ediff      Tdiff       Comment
 ------------------------------------------------------------------------------
          -690.68833981                           
     1    -690.68960024   1.26e-03   9.89e-01     
     2    -690.71961000   3.00e-02   1.34e-01     
     3    -690.71998529   3.75e-04   4.67e-02     
     4    -690.72281402   2.83e-03   1.40e-02     Switched to DIIS steps.
     5    -690.72381404   1.00e-03   1.16e-02     
     6    -690.72384212   2.81e-05   2.15e-03     
     7    -690.72382777   1.44e-05   1.03e-03     
     8    -690.72382668   1.09e-06   2.00e-04     
     9    -690.72382682   1.44e-07   7.54e-05     
 ------------------------------------------------------------------------------
          -690.72382682                           CCSD T converged.

 SCF energy                 = -689.68093888
 MP2 energy                 = -690.68833981
 CCSD correlation energy     =   -1.04288795
 CCSD total energy           = -690.72382682

 CCSD  T1^2 = 0.0080  T2^2 = 0.3949  Leading amplitudes:

 Amplitude    Orbitals with energies
 -0.0210       1 (A2) A                  ->    7 (A2) A                   
              -0.3535                          0.7719                     
 -0.0210       1 (A2) B                  ->    7 (A2) B                   
              -0.3535                          0.7719                     
 -0.0202       4 (B2) A                  ->    19 (B2) A                  
              -0.3380                          0.7819                     
 -0.0202       4 (B2) B                  ->    19 (B2) B                  
              -0.3380                          0.7819                     

 Amplitude    Orbitals with energies
 -0.0691       1 (A2) A      1 (A2) B    ->    4 (A2) A      4 (A2) B     
              -0.3535       -0.3535            0.1018        0.1018       
  0.0691       1 (A2) A      1 (A2) B    ->    4 (A2) B      4 (A2) A     
              -0.3535       -0.3535            0.1018        0.1018       
  0.0691       1 (A2) B      1 (A2) A    ->    4 (A2) A      4 (A2) B     
              -0.3535       -0.3535            0.1018        0.1018       
 -0.0691       1 (A2) B      1 (A2) A    ->    4 (A2) B      4 (A2) A     
              -0.3535       -0.3535            0.1018        0.1018       

 Computing CCSD intermediates for later calculations
 Finished.

           CCSD Lambda amplitudes will be solved using DIIS.
           Start     Size      MaxIter   EConv     LConv     
           3         7         100       1.00e-06  1.00e-04  
 ------------------------------------------------------------------------------
            Enorm      Ldiff       Comment
 ------------------------------------------------------------------------------
     1     5.70e-02   4.59e-02     
     2     1.03e-02   9.87e-04     
     3     3.48e-03   1.85e-03     
     4     1.43e-03   3.07e-04     Switched to DIIS steps.
     5     4.29e-04   3.22e-04     
     6     1.95e-04   6.81e-05     
     7     5.49e-05   2.30e-05     
     8     2.20e-05   4.18e-06     
     9     7.43e-06   6.54e-07     
    10     3.05e-06   8.88e-08     
    11     1.19e-06   1.01e-07     
    12     4.19e-07   8.76e-08     
 ------------------------------------------------------------------------------
                                   CCSD Lambda converged.

 CCSD calculation:   CPU 1680.12 s  wall 234.84 s

        Solving for CVS-EOMEE-CCSD A1 singlet states.

       EOMEE-CCSD-SINGLES right amplitudes will be solved using Davidson.
        Amplitudes will be solved using shifted  algorithm.
     Hard-coded thresholds: 
     LinDepThresh=1.00e-15  NormThresh=1.00e-06  ReorthogonThresh=1.00e-02

      Roots     MaxVec    MaxIter   Precond   Conv      Shift    
      15        1000      200       1         1.00e-04  1.00e+01  
 ------------------------------------------------------------------------------
      Iter ConvRoots NVecs ResNorm Current eigenvalues (eV)
 ------------------------------------------------------------------------------
      0    0      15    7.72e-04   303.3203   303.4921   303.6553   304.1149   304.1574   304.2775   304.3296   304.3604   304.5751   304.7427   304.7521   304.7812   304.7964   304.8160   305.1086   
      1    0      30    8.93e-01   302.8932   303.0820   303.1934   303.7245   303.7916   304.0708   304.0729   304.1211   304.3248   304.5762   304.5890   304.6151   304.6530   304.6672   305.0371   
      2    0      45    1.58e-01   300.9234   301.1142   301.3031   303.2852   303.5792   303.6057   303.6980   303.8142   303.9924   304.0713   304.1902   304.2375   304.3821   304.4738   304.4944   
      3    0      60    1.78e-01   300.4920   300.6062   300.7589   303.1652   303.2730   303.3925   303.5782   303.7560   303.9082   303.9734   304.0505   304.0711   304.1955   304.3981   304.4188   
      4    0      75    1.55e-01   300.4799   300.5756   300.7144   303.1487   303.1767   303.2976   303.5689   303.7419   303.9001   303.9585   304.0119   304.0490   304.1237   304.2981   304.3638   
      5    0      90    2.46e-01   299.9882   300.4795   300.5724   300.7199   303.1473   303.1896   303.2738   303.5681   303.7504   303.8972   303.9561   304.0093   304.0475   304.1040   304.2906   
      6    5      105   1.46e-02   299.0900   300.4795*  300.5722   300.7154   303.1472*  303.1839   303.2679   303.5680*  303.7492   303.8969*  303.9559*  304.0048   304.0463   304.0986   304.2861   
      7    7      115   1.50e-03   299.0149   300.4795*  300.5722*  300.7151*  303.1472*  303.1823   303.2670   303.5680*  303.7489   303.8969*  303.9559*  304.0042   304.0460   304.0974   304.2840   
Found complex roots...
      8    13     123   9.85e-05   299.0093   300.4795*  300.5722*  300.7151*  303.1472*  303.1821*  303.2669*  303.5680*  303.7489*  303.8969*  303.9559*  304.0040*  304.0459*  304.0973*  304.2835   
Found complex roots...
      9    15     125   1.56e-05   299.0090*  300.4795*  300.5722*  300.7151*  303.1472*  303.1821*  303.2669*  303.5680*  303.7489*  303.8969*  303.9559*  304.0040*  304.0459*  304.0973*  304.2834*  

     Davidson procedure converged

        CVS-EOMEE-CCSD/MP2 right amplitudes will be solved using Davidson.
        Amplitudes will be solved using shifted  algorithm.
     Hard-coded thresholds: 
     LinDepThresh=1.00e-15  NormThresh=1.00e-06  ReorthogonThresh=1.00e-02

      Roots     MaxVec    MaxIter   Precond   Conv      Shift    
      15        1000      200       1         1.00e-04  1.00e+01  
 ------------------------------------------------------------------------------
      Iter ConvRoots NVecs ResNorm Current eigenvalues (eV)
 ------------------------------------------------------------------------------
      0    0      15    1.91e+00   299.0090   300.4795   300.5722   300.7151   303.1472   303.1821   303.2669   303.5680   303.7489   303.8969   303.9559   304.0040   304.0459   304.0973   304.2834   
      1    0      30    1.44e+01   297.1025   298.1882   298.2852   298.4121   300.4018   300.4543   300.5258   300.7737   300.9932   301.1872   301.2181   301.2237   301.2887   301.3903   301.4775   
      2    0      45    1.74e-01   288.5758   288.7067   288.8641   289.6448   289.6693   289.7411   289.7892   289.8181   289.8499   290.2014   290.3530   290.3850   290.8166   290.9785   291.0541   
      3    0      60    3.24e-02   288.0441   288.1708   288.3237   289.0643   289.1368   289.1459   289.1977   289.2953   289.3266   289.6602   289.8162   289.8537   290.0775   290.2696   290.3462   
      4    0      75    1.02e-02   287.9601   288.0832   288.2316   288.8696   289.0913   289.1020   289.1423   289.2484   289.2791   289.5998   289.7538   289.7891   289.8995   290.0932   290.1719   
      5    0      90    4.15e-03   287.9250   288.0457   288.1889   288.8189   289.0674   289.0829   289.1178   289.2240   289.2552   289.5607   289.6964   289.7321   289.8402   290.0024   290.0816   
      6    0      105   2.97e-03   287.9103   288.0297   288.1681   288.7996   289.0512   289.0706   289.1044   289.2068   289.2406   289.5320   289.6360   289.6951   289.8159   289.9469   290.0240   
      7    0      120   1.64e-03   287.9022   288.0210   288.1558   288.7802   289.0357   289.0606   289.0941   289.1924   289.2308   289.5105   289.5826   289.6669   289.7981   289.9069   289.9807   
      8    0      135   5.61e-04   287.8999   288.0185   288.1519   288.7725   289.0277   289.0563   289.0896   289.1862   289.2273   289.5028   289.5549   289.6527   289.7888   289.8863   289.9496   
      9    2      150   4.97e-04   287.8993*  288.0178*  288.1505   288.7697   289.0235   289.0538   289.0870   289.1826   289.2254   289.4982   289.5363   289.6454   289.7823   289.8789   289.9355   
Found complex roots...
      10   5      163   3.74e-04   287.8988*  288.0174*  288.1491*  288.7668   289.0207   289.0525*  289.0857*  289.1788   289.2237   289.4935   289.5137   289.6375   289.7745   289.8716   289.9153   
      11   7      173   3.70e-04   287.8986*  288.0173*  288.1487*  288.7653   289.0197*  289.0521*  289.0853*  289.1768   289.2227*  289.4906   289.4971   289.6322   289.7674   289.8666   289.8936   
      12   9      181   2.52e-04   287.8986*  288.0173*  288.1487*  288.7649*  289.0188*  289.0517*  289.0850*  289.1748*  289.2225*  289.4808   289.4909   289.6258   289.7602   289.8552   289.8669   
Found complex roots...
      13   10     187   1.54e-04   287.8986*  288.0172*  288.1486*  288.7649*  289.0185*  289.0517*  289.0849*  289.1744*  289.2225*  289.4736   289.4898*  289.6235   289.7580   289.8476   289.8628   
      14   11     192   1.44e-04   287.8986*  288.0172*  288.1486*  288.7649*  289.0184*  289.0516*  289.0849*  289.1743*  289.2225*  289.4662   289.4896*  289.6212   289.7560*  289.8330   289.8571   
      15   12     196   9.56e-05   287.8986*  288.0172*  288.1486*  288.7649*  289.0183*  289.0515*  289.0849*  289.1739*  289.2225*  289.4642   289.4895*  289.6192*  289.7558*  289.8256   289.8538   
      16   12     199   8.63e-05   287.8986*  288.0172*  288.1486*  288.7649*  289.0183*  289.0515*  289.0849*  289.1739*  289.2225*  289.4609   289.4894*  289.6188*  289.7557*  289.8205   289.8503   
      17   13     202   6.89e-05   287.8986*  288.0172*  288.1486*  288.7649*  289.0184*  289.0515*  289.0849*  289.1739*  289.2225*  289.4610*  289.4894*  289.6186*  289.7556*  289.8187   289.8500   
      18   14     204   6.86e-05   287.8986*  288.0172*  288.1486*  288.7649*  289.0183*  289.0515*  289.0848*  289.1739*  289.2225*  289.4608*  289.4893*  289.6185*  289.7556*  289.8172*  289.8444   
      19   14     205   6.95e-05   287.8985*  288.0172*  288.1486*  288.7649*  289.0182*  289.0515*  289.0848*  289.1739*  289.2225*  289.4608*  289.4892*  289.6185*  289.7556*  289.8172*  289.8435   
      20   14     206   6.41e-05   287.8985*  288.0172*  288.1486*  288.7649*  289.0180*  289.0515*  289.0848*  289.1739*  289.2225*  289.4608*  289.4891*  289.6185*  289.7556*  289.8168*  289.8378   
Found complex roots...
      21   14     207   6.27e-05   287.8985*  288.0172*  288.1486*  288.7649*  289.0181*  289.0515*  289.0848*  289.1739*  289.2225*  289.4608*  289.4891*  289.6185*  289.7556*  289.8169*  289.8381   
      22   13     208   7.49e-05   287.8985*  288.0172*  288.1486*  288.7649*  289.0180*  289.0515*  289.0848*  289.1739*  289.2225*  289.4608*  289.4890*  289.6185*  289.7556*  289.8165   289.8343   
Found complex roots...
      23   12     210   7.20e-01   280.0811   287.8985*  288.0172*  288.1486*  288.7649*  289.0180*  289.0515*  289.0849*  289.1739*  289.2225*  289.4608*  289.4890   289.6184*  289.7556*  289.8154   
      24   14     213   5.44e-05   287.8985*  288.0172*  288.1486*  288.7649*  289.0180*  289.0515*  289.0848*  289.1738*  289.2224*  289.4606*  289.4888*  289.6184*  289.7556*  289.8150*  289.8357   
      25   15     214   5.22e-05   287.8985*  288.0172*  288.1486*  288.7649*  289.0180*  289.0515*  289.0848*  289.1738*  289.2224*  289.4606*  289.4887*  289.6184*  289.7556*  289.8150*  289.8346*  

     Davidson procedure converged

 EOMEE transition 1/A1
 Total energy = -680.14375197 a.u.  Excitation energy = 287.8985 eV.
 R0^2 = 0.0000  R1^2 = 0.8123  R2_CCVV^2 = 0.0017  R2_COVV^2 = 0.0930  Res^2 = 1.24e-05
 Conv-d = yes

 Amplitude    Transitions between orbitals
  0.3924       5 (A1) A                  ->    16 (A1) A                  
  0.3924       5 (A1) B                  ->    16 (A1) B                  
  0.2395       5 (A1) A                  ->    21 (A1) A                  
  0.2395       5 (A1) B                  ->    21 (A1) B                  
 -0.2124       5 (A1) A                  ->    24 (A1) A                  
 -0.2124       5 (A1) B                  ->    24 (A1) B                  
  0.1755       5 (A1) A                  ->    25 (A1) A                  
  0.1755       5 (A1) B                  ->    25 (A1) B                  
  0.1481       5 (A1) A                  ->    26 (A1) A                  
  0.1481       5 (A1) B                  ->    26 (A1) B                  
  0.1368       5 (A1) A                  ->    17 (A1) A                  
  0.1368       5 (A1) B                  ->    17 (A1) B                  
 -0.1327       5 (A1) A                  ->    33 (A1) A                  
 -0.1327       5 (A1) B                  ->    33 (A1) B                  
  0.1310       5 (A1) A                  ->    31 (A1) A                  
  0.1310       5 (A1) B                  ->    31 (A1) B                  

              Summary of significant orbitals:

               Number  Type             Irrep      Energy
               7       Occ  Alpha       5 (A1)    -11.2494
               7       Occ  Beta        5 (A1)    -11.2494
               30      Vir  Alpha      16 (A1)      0.0143
               32      Vir  Alpha      17 (A1)      0.0212
               43      Vir  Alpha      21 (A1)      0.0629
               51      Vir  Alpha      24 (A1)      0.0779
               52      Vir  Alpha      25 (A1)      0.0912
               54      Vir  Alpha      26 (A1)      0.0999
               67      Vir  Alpha      31 (A1)      0.2130
               74      Vir  Alpha      33 (A1)      0.2379
               30      Vir  Beta       16 (A1)      0.0143
               32      Vir  Beta       17 (A1)      0.0212
               43      Vir  Beta       21 (A1)      0.0629
               51      Vir  Beta       24 (A1)      0.0779
               52      Vir  Beta       25 (A1)      0.0912
               54      Vir  Beta       26 (A1)      0.0999
               67      Vir  Beta       31 (A1)      0.2130
               74      Vir  Beta       33 (A1)      0.2379


 EOMEE transition 2/A1
 Total energy = -680.13938990 a.u.  Excitation energy = 288.0172 eV.
 R0^2 = 0.0000  R1^2 = 0.8126  R2_CCVV^2 = 0.0017  R2_COVV^2 = 0.0929  Res^2 = 4.59e-05
 Conv-d = yes

 Amplitude    Transitions between orbitals
  0.3069       4 (A1) A                  ->    16 (A1) A                  
  0.3069       4 (A1) B                  ->    16 (A1) B                  
  0.1824       4 (A1) A                  ->    25 (A1) A                  
  0.1824       4 (A1) B                  ->    25 (A1) B                  
 -0.1790       2 (B1) A                  ->    10 (B1) A                  
 -0.1790       2 (B1) B                  ->    10 (B1) B                  
 -0.1750       3 (A1) A                  ->    16 (A1) A                  
 -0.1750       3 (A1) B                  ->    16 (A1) B                  
  0.1686       4 (A1) A                  ->    21 (A1) A                  
  0.1686       4 (A1) B                  ->    21 (A1) B                  
 -0.1314       4 (A1) A                  ->    24 (A1) A                  
 -0.1314       4 (A1) B                  ->    24 (A1) B                  
  0.1270       2 (B1) A                  ->    16 (B1) A                  
  0.1270       2 (B1) B                  ->    16 (B1) B                  
 -0.1124       2 (B1) A                  ->    13 (B1) A                  
 -0.1124       2 (B1) B                  ->    13 (B1) B                  
 -0.1032       2 (B1) A                  ->    15 (B1) A                  
 -0.1032       2 (B1) B                  ->    15 (B1) B                  
 -0.1029       3 (A1) A                  ->    25 (A1) A                  
 -0.1029       3 (A1) B                  ->    25 (A1) B                  
 -0.1022       3 (A1) A                  ->    21 (A1) A                  
 -0.1022       3 (A1) B                  ->    21 (A1) B                  

              Summary of significant orbitals:

               Number  Type             Irrep      Energy
               3       Occ  Alpha       3 (A1)    -11.2547
               5       Occ  Alpha       4 (A1)    -11.2535
               6       Occ  Alpha       2 (B1)    -11.2533
               3       Occ  Beta        3 (A1)    -11.2547
               5       Occ  Beta        4 (A1)    -11.2535
               6       Occ  Beta        2 (B1)    -11.2533
               30      Vir  Alpha      16 (A1)      0.0143
               43      Vir  Alpha      21 (A1)      0.0629
               51      Vir  Alpha      24 (A1)      0.0779
               52      Vir  Alpha      25 (A1)      0.0912
               31      Vir  Alpha      10 (B1)      0.0202
               45      Vir  Alpha      13 (B1)      0.0647
               50      Vir  Alpha      15 (B1)      0.0744
               53      Vir  Alpha      16 (B1)      0.0957
               30      Vir  Beta       16 (A1)      0.0143
               43      Vir  Beta       21 (A1)      0.0629
               51      Vir  Beta       24 (A1)      0.0779
               52      Vir  Beta       25 (A1)      0.0912
               31      Vir  Beta       10 (B1)      0.0202
               45      Vir  Beta       13 (B1)      0.0647
               50      Vir  Beta       15 (B1)      0.0744
               53      Vir  Beta       16 (B1)      0.0957


 EOMEE transition 3/A1
 Total energy = -680.13456110 a.u.  Excitation energy = 288.1486 eV.
 R0^2 = 0.0000  R1^2 = 0.8121  R2_CCVV^2 = 0.0017  R2_COVV^2 = 0.0931  Res^2 = 2.67e-05
 Conv-d = yes

 Amplitude    Transitions between orbitals
  0.2641       3 (A1) A                  ->    16 (A1) A                  
  0.2641       3 (A1) B                  ->    16 (A1) B                  
 -0.1794       1 (B1) A                  ->    10 (B1) A                  
 -0.1794       1 (B1) B                  ->    10 (B1) B                  
  0.1669       3 (A1) A                  ->    25 (A1) A                  
  0.1669       3 (A1) B                  ->    25 (A1) B                  
  0.1468       1 (B1) A                  ->    16 (B1) A                  
  0.1468       1 (B1) B                  ->    16 (B1) B                  
  0.1356       4 (A1) A                  ->    16 (A1) A                  
  0.1356       4 (A1) B                  ->    16 (A1) B                  
 -0.1203       3 (A1) A                  ->    32 (A1) A                  
 -0.1203       3 (A1) B                  ->    32 (A1) B                  
  0.1153       3 (A1) A                  ->    21 (A1) A                  
  0.1153       3 (A1) B                  ->    21 (A1) B                  
  0.1131       3 (A1) A                  ->    18 (A1) A                  
  0.1131       3 (A1) B                  ->    18 (A1) B                  
 -0.1117       1 (B1) A                  ->    13 (B1) A                  
 -0.1117       1 (B1) B                  ->    13 (B1) B                  
 -0.1061       3 (A1) A                  ->    23 (A1) A                  
 -0.1061       3 (A1) B                  ->    23 (A1) B                  

              Summary of significant orbitals:

               Number  Type             Irrep      Energy
               3       Occ  Alpha       3 (A1)    -11.2547
               5       Occ  Alpha       4 (A1)    -11.2535
               4       Occ  Alpha       1 (B1)    -11.2547
               3       Occ  Beta        3 (A1)    -11.2547
               5       Occ  Beta        4 (A1)    -11.2535
               4       Occ  Beta        1 (B1)    -11.2547
               30      Vir  Alpha      16 (A1)      0.0143
               34      Vir  Alpha      18 (A1)      0.0319
               43      Vir  Alpha      21 (A1)      0.0629
               49      Vir  Alpha      23 (A1)      0.0734
               52      Vir  Alpha      25 (A1)      0.0912
               69      Vir  Alpha      32 (A1)      0.2216
               31      Vir  Alpha      10 (B1)      0.0202
               45      Vir  Alpha      13 (B1)      0.0647
               53      Vir  Alpha      16 (B1)      0.0957
               30      Vir  Beta       16 (A1)      0.0143
               34      Vir  Beta       18 (A1)      0.0319
               43      Vir  Beta       21 (A1)      0.0629
               49      Vir  Beta       23 (A1)      0.0734
               52      Vir  Beta       25 (A1)      0.0912
               69      Vir  Beta       32 (A1)      0.2216
               31      Vir  Beta       10 (B1)      0.0202
               45      Vir  Beta       13 (B1)      0.0647
               53      Vir  Beta       16 (B1)      0.0957


 EOMEE transition 4/A1
 Total energy = -680.11191240 a.u.  Excitation energy = 288.7649 eV.
 R0^2 = 0.0000  R1^2 = 0.8410  R2_CCVV^2 = 0.0019  R2_COVV^2 = 0.0786  Res^2 = 6.42e-05
 Conv-d = yes

 Amplitude    Transitions between orbitals
 -0.2643       2 (A1) A                  ->    32 (A1) A                  
 -0.2643       2 (A1) B                  ->    32 (A1) B                  
 -0.2638       2 (A1) A                  ->    29 (A1) A                  
 -0.2638       2 (A1) B                  ->    29 (A1) B                  
 -0.2560       2 (A1) A                  ->    28 (A1) A                  
 -0.2560       2 (A1) B                  ->    28 (A1) B                  
  0.2084       2 (A1) A                  ->    37 (A1) A                  
  0.2084       2 (A1) B                  ->    37 (A1) B                  
 -0.1846       2 (A1) A                  ->    35 (A1) A                  
 -0.1846       2 (A1) B                  ->    35 (A1) B                  
  0.1657       2 (A1) A                  ->    25 (A1) A                  
  0.1657       2 (A1) B                  ->    25 (A1) B                  
  0.1462       2 (A1) A                  ->    27 (A1) A                  
  0.1462       2 (A1) B                  ->    27 (A1) B                  
 -0.1048       2 (A1) A                  ->    26 (A1) A                  
 -0.1048       2 (A1) B                  ->    26 (A1) B                  

              Summary of significant orbitals:

               Number  Type             Irrep      Energy
               2       Occ  Alpha       2 (A1)    -11.3087
               2       Occ  Beta        2 (A1)    -11.3087
               52      Vir  Alpha      25 (A1)      0.0912
               54      Vir  Alpha      26 (A1)      0.0999
               58      Vir  Alpha      27 (A1)      0.1260
               60      Vir  Alpha      28 (A1)      0.1690
               62      Vir  Alpha      29 (A1)      0.1761
               69      Vir  Alpha      32 (A1)      0.2216
               79      Vir  Alpha      35 (A1)      0.2644
               83      Vir  Alpha      37 (A1)      0.3026
               52      Vir  Beta       25 (A1)      0.0912
               54      Vir  Beta       26 (A1)      0.0999
               58      Vir  Beta       27 (A1)      0.1260
               60      Vir  Beta       28 (A1)      0.1690
               62      Vir  Beta       29 (A1)      0.1761
               69      Vir  Beta       32 (A1)      0.2216
               79      Vir  Beta       35 (A1)      0.2644
               83      Vir  Beta       37 (A1)      0.3026


 EOMEE transition 5/A1
 Total energy = -680.10260963 a.u.  Excitation energy = 289.0180 eV.
 R0^2 = 0.0000  R1^2 = 0.8015  R2_CCVV^2 = 0.0017  R2_COVV^2 = 0.0984  Res^2 = 3.71e-05
 Conv-d = yes

 Amplitude    Transitions between orbitals
 -0.3083       5 (A1) A                  ->    17 (A1) A                  
 -0.3083       5 (A1) B                  ->    17 (A1) B                  
 -0.2184       5 (A1) A                  ->    19 (A1) A                  
 -0.2184       5 (A1) B                  ->    19 (A1) B                  
 -0.2164       5 (A1) A                  ->    23 (A1) A                  
 -0.2164       5 (A1) B                  ->    23 (A1) B                  
  0.1954       5 (A1) A                  ->    18 (A1) A                  
  0.1954       5 (A1) B                  ->    18 (A1) B                  
  0.1846       5 (A1) A                  ->    16 (A1) A                  
  0.1846       5 (A1) B                  ->    16 (A1) B                  
  0.1721       5 (A1) A                  ->    24 (A1) A                  
  0.1721       5 (A1) B                  ->    24 (A1) B                  
 -0.1425       5 (A1) A                  ->    26 (A1) A                  
 -0.1425       5 (A1) B                  ->    26 (A1) B                  
  0.1225       5 (A1) A                  ->    29 (A1) A                  
  0.1225       5 (A1) B                  ->    29 (A1) B                  
  0.1116       5 (A1) A                  ->    21 (A1) A                  
  0.1116       5 (A1) B                  ->    21 (A1) B                  
  0.1114       5 (A1) A                  ->    33 (A1) A                  
  0.1114       5 (A1) B                  ->    33 (A1) B                  
  0.1039       5 (A1) A                  ->    22 (A1) A                  
  0.1039       5 (A1) B                  ->    22 (A1) B                  

              Summary of significant orbitals:

               Number  Type             Irrep      Energy
               7       Occ  Alpha       5 (A1)    -11.2494
               7       Occ  Beta        5 (A1)    -11.2494
               30      Vir  Alpha      16 (A1)      0.0143
               32      Vir  Alpha      17 (A1)      0.0212
               34      Vir  Alpha      18 (A1)      0.0319
               38      Vir  Alpha      19 (A1)      0.0450
               43      Vir  Alpha      21 (A1)      0.0629
               46      Vir  Alpha      22 (A1)      0.0682
               49      Vir  Alpha      23 (A1)      0.0734
               51      Vir  Alpha      24 (A1)      0.0779
               54      Vir  Alpha      26 (A1)      0.0999
               62      Vir  Alpha      29 (A1)      0.1761
               74      Vir  Alpha      33 (A1)      0.2379
               30      Vir  Beta       16 (A1)      0.0143
               32      Vir  Beta       17 (A1)      0.0212
               34      Vir  Beta       18 (A1)      0.0319
               38      Vir  Beta       19 (A1)      0.0450
               43      Vir  Beta       21 (A1)      0.0629
               46      Vir  Beta       22 (A1)      0.0682
               49      Vir  Beta       23 (A1)      0.0734
               51      Vir  Beta       24 (A1)      0.0779
               54      Vir  Beta       26 (A1)      0.0999
               62      Vir  Beta       29 (A1)      0.1761
               74      Vir  Beta       33 (A1)      0.2379


 EOMEE transition 6/A1
 Total energy = -680.10138043 a.u.  Excitation energy = 289.0515 eV.
 R0^2 = 0.0000  R1^2 = 0.8012  R2_CCVV^2 = 0.0017  R2_COVV^2 = 0.0986  Res^2 = 3.97e-05
 Conv-d = yes

 Amplitude    Transitions between orbitals
  0.2865       4 (A1) A                  ->    16 (A1) A                  
  0.2865       4 (A1) B                  ->    16 (A1) B                  
  0.2775       2 (B1) A                  ->    10 (B1) A                  
  0.2775       2 (B1) B                  ->    10 (B1) B                  
 -0.1921       4 (A1) A                  ->    19 (A1) A                  
 -0.1921       4 (A1) B                  ->    19 (A1) B                  
  0.1569       4 (A1) A                  ->    21 (A1) A                  
  0.1569       4 (A1) B                  ->    21 (A1) B                  
  0.1566       4 (A1) A                  ->    26 (A1) A                  
  0.1566       4 (A1) B                  ->    26 (A1) B                  
 -0.1467       2 (B1) A                  ->    16 (B1) A                  
 -0.1467       2 (B1) B                  ->    16 (B1) B                  
 -0.1245       4 (A1) A                  ->    18 (A1) A                  
 -0.1245       4 (A1) B                  ->    18 (A1) B                  
  0.1099       4 (A1) A                  ->    29 (A1) A                  
  0.1099       4 (A1) B                  ->    29 (A1) B                  
 -0.1098       4 (A1) A                  ->    23 (A1) A                  
 -0.1098       4 (A1) B                  ->    23 (A1) B                  

              Summary of significant orbitals:

               Number  Type             Irrep      Energy
               5       Occ  Alpha       4 (A1)    -11.2535
               6       Occ  Alpha       2 (B1)    -11.2533
               5       Occ  Beta        4 (A1)    -11.2535
               6       Occ  Beta        2 (B1)    -11.2533
               30      Vir  Alpha      16 (A1)      0.0143
               34      Vir  Alpha      18 (A1)      0.0319
               38      Vir  Alpha      19 (A1)      0.0450
               43      Vir  Alpha      21 (A1)      0.0629
               49      Vir  Alpha      23 (A1)      0.0734
               54      Vir  Alpha      26 (A1)      0.0999
               62      Vir  Alpha      29 (A1)      0.1761
               31      Vir  Alpha      10 (B1)      0.0202
               53      Vir  Alpha      16 (B1)      0.0957
               30      Vir  Beta       16 (A1)      0.0143
               34      Vir  Beta       18 (A1)      0.0319
               38      Vir  Beta       19 (A1)      0.0450
               43      Vir  Beta       21 (A1)      0.0629
               49      Vir  Beta       23 (A1)      0.0734
               54      Vir  Beta       26 (A1)      0.0999
               62      Vir  Beta       29 (A1)      0.1761
               31      Vir  Beta       10 (B1)      0.0202
               53      Vir  Beta       16 (B1)      0.0957


 EOMEE transition 7/A1
 Total energy = -680.10015402 a.u.  Excitation energy = 289.0848 eV.
 R0^2 = 0.0000  R1^2 = 0.8013  R2_CCVV^2 = 0.0017  R2_COVV^2 = 0.0985  Res^2 = 5.24e-05
 Conv-d = yes

 Amplitude    Transitions between orbitals
  0.2839       3 (A1) A                  ->    16 (A1) A                  
  0.2839       3 (A1) B                  ->    16 (A1) B                  
  0.2453       1 (B1) A                  ->    10 (B1) A                  
  0.2453       1 (B1) B                  ->    10 (B1) B                  
 -0.1928       3 (A1) A                  ->    19 (A1) A                  
 -0.1928       3 (A1) B                  ->    19 (A1) B                  
  0.1619       3 (A1) A                  ->    26 (A1) A                  
  0.1619       3 (A1) B                  ->    26 (A1) B                  
  0.1521       3 (A1) A                  ->    21 (A1) A                  
  0.1521       3 (A1) B                  ->    21 (A1) B                  
 -0.1420       1 (B1) A                  ->    16 (B1) A                  
 -0.1420       1 (B1) B                  ->    16 (B1) B                  
 -0.1255       3 (A1) A                  ->    18 (A1) A                  
 -0.1255       3 (A1) B                  ->    18 (A1) B                  
  0.1253       3 (A1) A                  ->    29 (A1) A                  
  0.1253       3 (A1) B                  ->    29 (A1) B                  
 -0.1204       3 (A1) A                  ->    23 (A1) A                  
 -0.1204       3 (A1) B                  ->    23 (A1) B                  
 -0.1148       2 (B1) A                  ->    10 (B1) A                  
 -0.1148       2 (B1) B                  ->    10 (B1) B                  
 -0.1016       4 (A1) A                  ->    17 (A1) A                  
 -0.1016       4 (A1) B                  ->    17 (A1) B                  

              Summary of significant orbitals:

               Number  Type             Irrep      Energy
               3       Occ  Alpha       3 (A1)    -11.2547
               5       Occ  Alpha       4 (A1)    -11.2535
               4       Occ  Alpha       1 (B1)    -11.2547
               6       Occ  Alpha       2 (B1)    -11.2533
               3       Occ  Beta        3 (A1)    -11.2547
               5       Occ  Beta        4 (A1)    -11.2535
               4       Occ  Beta        1 (B1)    -11.2547
               6       Occ  Beta        2 (B1)    -11.2533
               30      Vir  Alpha      16 (A1)      0.0143
               32      Vir  Alpha      17 (A1)      0.0212
               34      Vir  Alpha      18 (A1)      0.0319
               38      Vir  Alpha      19 (A1)      0.0450
               43      Vir  Alpha      21 (A1)      0.0629
               49      Vir  Alpha      23 (A1)      0.0734
               54      Vir  Alpha      26 (A1)      0.0999
               62      Vir  Alpha      29 (A1)      0.1761
               31      Vir  Alpha      10 (B1)      0.0202
               53      Vir  Alpha      16 (B1)      0.0957
               30      Vir  Beta       16 (A1)      0.0143
               32      Vir  Beta       17 (A1)      0.0212
               34      Vir  Beta       18 (A1)      0.0319
               38      Vir  Beta       19 (A1)      0.0450
               43      Vir  Beta       21 (A1)      0.0629
               49      Vir  Beta       23 (A1)      0.0734
               54      Vir  Beta       26 (A1)      0.0999
               62      Vir  Beta       29 (A1)      0.1761
               31      Vir  Beta       10 (B1)      0.0202
               53      Vir  Beta       16 (B1)      0.0957


 EOMEE transition 8/A1
 Total energy = -680.09688490 a.u.  Excitation energy = 289.1738 eV.
 R0^2 = 0.0000  R1^2 = 0.8006  R2_CCVV^2 = 0.0016  R2_COVV^2 = 0.0989  Res^2 = 5.82e-05
 Conv-d = yes

 Amplitude    Transitions between orbitals
  0.3526       4 (A1) A                  ->    17 (A1) A                  
  0.3526       4 (A1) B                  ->    17 (A1) B                  
  0.2279       4 (A1) A                  ->    23 (A1) A                  
  0.2279       4 (A1) B                  ->    23 (A1) B                  
 -0.1520       4 (A1) A                  ->    24 (A1) A                  
 -0.1520       4 (A1) B                  ->    24 (A1) B                  
 -0.1460       2 (B1) A                  ->    11 (B1) A                  
 -0.1460       2 (B1) B                  ->    11 (B1) B                  
 -0.1227       4 (A1) A                  ->    29 (A1) A                  
 -0.1227       4 (A1) B                  ->    29 (A1) B                  
 -0.1146       3 (A1) A                  ->    19 (A1) A                  
 -0.1146       3 (A1) B                  ->    19 (A1) B                  
 -0.1123       4 (A1) A                  ->    22 (A1) A                  
 -0.1123       4 (A1) B                  ->    22 (A1) B                  
  0.1114       4 (A1) A                  ->    19 (A1) A                  
  0.1114       4 (A1) B                  ->    19 (A1) B                  
  0.1114       2 (B1) A                  ->    17 (B1) A                  
  0.1114       2 (B1) B                  ->    17 (B1) B                  
 -0.1047       4 (A1) A                  ->    18 (A1) A                  
 -0.1047       4 (A1) B                  ->    18 (A1) B                  
  0.1045       3 (A1) A                  ->    16 (A1) A                  
  0.1045       3 (A1) B                  ->    16 (A1) B                  
 -0.1014       3 (A1) A                  ->    17 (A1) A                  
 -0.1014       3 (A1) B                  ->    17 (A1) B                  

              Summary of significant orbitals:

               Number  Type             Irrep      Energy
               3       Occ  Alpha       3 (A1)    -11.2547
               5       Occ  Alpha       4 (A1)    -11.2535
               6       Occ  Alpha       2 (B1)    -11.2533
               3       Occ  Beta        3 (A1)    -11.2547
               5       Occ  Beta        4 (A1)    -11.2535
               6       Occ  Beta        2 (B1)    -11.2533
               30      Vir  Alpha      16 (A1)      0.0143
               32      Vir  Alpha      17 (A1)      0.0212
               34      Vir  Alpha      18 (A1)      0.0319
               38      Vir  Alpha      19 (A1)      0.0450
               46      Vir  Alpha      22 (A1)      0.0682
               49      Vir  Alpha      23 (A1)      0.0734
               51      Vir  Alpha      24 (A1)      0.0779
               62      Vir  Alpha      29 (A1)      0.1761
               35      Vir  Alpha      11 (B1)      0.0334
               57      Vir  Alpha      17 (B1)      0.1061
               30      Vir  Beta       16 (A1)      0.0143
               32      Vir  Beta       17 (A1)      0.0212
               34      Vir  Beta       18 (A1)      0.0319
               38      Vir  Beta       19 (A1)      0.0450
               46      Vir  Beta       22 (A1)      0.0682
               49      Vir  Beta       23 (A1)      0.0734
               51      Vir  Beta       24 (A1)      0.0779
               62      Vir  Beta       29 (A1)      0.1761
               35      Vir  Beta       11 (B1)      0.0334
               57      Vir  Beta       17 (B1)      0.1061


 EOMEE transition 9/A1
 Total energy = -680.09509739 a.u.  Excitation energy = 289.2224 eV.
 R0^2 = 0.0000  R1^2 = 0.7996  R2_CCVV^2 = 0.0016  R2_COVV^2 = 0.0994  Res^2 = 7.94e-05
 Conv-d = yes

 Amplitude    Transitions between orbitals
 -0.3836       3 (A1) A                  ->    17 (A1) A                  
 -0.3836       3 (A1) B                  ->    17 (A1) B                  
 -0.2426       3 (A1) A                  ->    23 (A1) A                  
 -0.2426       3 (A1) B                  ->    23 (A1) B                  
  0.1544       1 (B1) A                  ->    11 (B1) A                  
  0.1544       1 (B1) B                  ->    11 (B1) B                  
 -0.1427       4 (A1) A                  ->    17 (A1) A                  
 -0.1427       4 (A1) B                  ->    17 (A1) B                  
  0.1381       3 (A1) A                  ->    29 (A1) A                  
  0.1381       3 (A1) B                  ->    29 (A1) B                  
 -0.1217       3 (A1) A                  ->    16 (A1) A                  
 -0.1217       3 (A1) B                  ->    16 (A1) B                  
  0.1124       3 (A1) A                  ->    24 (A1) A                  
  0.1124       3 (A1) B                  ->    24 (A1) B                  
 -0.1090       1 (B1) A                  ->    17 (B1) A                  
 -0.1090       1 (B1) B                  ->    17 (B1) B                  
 -0.1048       4 (A1) A                  ->    16 (A1) A                  
 -0.1048       4 (A1) B                  ->    16 (A1) B                  

              Summary of significant orbitals:

               Number  Type             Irrep      Energy
               3       Occ  Alpha       3 (A1)    -11.2547
               5       Occ  Alpha       4 (A1)    -11.2535
               4       Occ  Alpha       1 (B1)    -11.2547
               3       Occ  Beta        3 (A1)    -11.2547
               5       Occ  Beta        4 (A1)    -11.2535
               4       Occ  Beta        1 (B1)    -11.2547
               30      Vir  Alpha      16 (A1)      0.0143
               32      Vir  Alpha      17 (A1)      0.0212
               49      Vir  Alpha      23 (A1)      0.0734
               51      Vir  Alpha      24 (A1)      0.0779
               62      Vir  Alpha      29 (A1)      0.1761
               35      Vir  Alpha      11 (B1)      0.0334
               57      Vir  Alpha      17 (B1)      0.1061
               30      Vir  Beta       16 (A1)      0.0143
               32      Vir  Beta       17 (A1)      0.0212
               49      Vir  Beta       23 (A1)      0.0734
               51      Vir  Beta       24 (A1)      0.0779
               62      Vir  Beta       29 (A1)      0.1761
               35      Vir  Beta       11 (B1)      0.0334
               57      Vir  Beta       17 (B1)      0.1061


 EOMEE transition 10/A1
 Total energy = -680.08634441 a.u.  Excitation energy = 289.4606 eV.
 R0^2 = 0.0000  R1^2 = 0.7993  R2_CCVV^2 = 0.0016  R2_COVV^2 = 0.0995  Res^2 = 8.52e-05
 Conv-d = yes

 Amplitude    Transitions between orbitals
 -0.3432       1 (B1) A                  ->    10 (B1) A                  
 -0.3432       1 (B1) B                  ->    10 (B1) B                  
 -0.2589       2 (B1) A                  ->    10 (B1) A                  
 -0.2589       2 (B1) B                  ->    10 (B1) B                  
 -0.1309       1 (B1) A                  ->    13 (B1) A                  
 -0.1309       1 (B1) B                  ->    13 (B1) B                  
 -0.1257       3 (A1) A                  ->    27 (A1) A                  
 -0.1257       3 (A1) B                  ->    27 (A1) B                  
  0.1133       3 (A1) A                  ->    32 (A1) A                  
  0.1133       3 (A1) B                  ->    32 (A1) B                  
  0.1124       3 (A1) A                  ->    29 (A1) A                  
  0.1124       3 (A1) B                  ->    29 (A1) B                  
 -0.1035       4 (A1) A                  ->    27 (A1) A                  
 -0.1035       4 (A1) B                  ->    27 (A1) B                  
  0.1009       4 (A1) A                  ->    29 (A1) A                  
  0.1009       4 (A1) B                  ->    29 (A1) B                  

              Summary of significant orbitals:

               Number  Type             Irrep      Energy
               3       Occ  Alpha       3 (A1)    -11.2547
               5       Occ  Alpha       4 (A1)    -11.2535
               4       Occ  Alpha       1 (B1)    -11.2547
               6       Occ  Alpha       2 (B1)    -11.2533
               3       Occ  Beta        3 (A1)    -11.2547
               5       Occ  Beta        4 (A1)    -11.2535
               4       Occ  Beta        1 (B1)    -11.2547
               6       Occ  Beta        2 (B1)    -11.2533
               58      Vir  Alpha      27 (A1)      0.1260
               62      Vir  Alpha      29 (A1)      0.1761
               69      Vir  Alpha      32 (A1)      0.2216
               31      Vir  Alpha      10 (B1)      0.0202
               45      Vir  Alpha      13 (B1)      0.0647
               58      Vir  Beta       27 (A1)      0.1260
               62      Vir  Beta       29 (A1)      0.1761
               69      Vir  Beta       32 (A1)      0.2216
               31      Vir  Beta       10 (B1)      0.0202
               45      Vir  Beta       13 (B1)      0.0647


 EOMEE transition 11/A1
 Total energy = -680.08531423 a.u.  Excitation energy = 289.4887 eV.
 R0^2 = 0.0000  R1^2 = 0.7999  R2_CCVV^2 = 0.0016  R2_COVV^2 = 0.0992  Res^2 = 4.84e-05
 Conv-d = yes

 Amplitude    Transitions between orbitals
 -0.3399       5 (A1) A                  ->    18 (A1) A                  
 -0.3399       5 (A1) B                  ->    18 (A1) B                  
 -0.2606       5 (A1) A                  ->    19 (A1) A                  
 -0.2606       5 (A1) B                  ->    19 (A1) B                  
  0.2127       5 (A1) A                  ->    26 (A1) A                  
  0.2127       5 (A1) B                  ->    26 (A1) B                  
  0.1798       5 (A1) A                  ->    24 (A1) A                  
  0.1798       5 (A1) B                  ->    24 (A1) B                  
  0.1326       5 (A1) A                  ->    29 (A1) A                  
  0.1326       5 (A1) B                  ->    29 (A1) B                  
 -0.1281       5 (A1) A                  ->    16 (A1) A                  
 -0.1281       5 (A1) B                  ->    16 (A1) B                  
  0.1262       5 (A1) A                  ->    21 (A1) A                  
  0.1262       5 (A1) B                  ->    21 (A1) B                  
 -0.1234       5 (A1) A                  ->    25 (A1) A                  
 -0.1234       5 (A1) B                  ->    25 (A1) B                  
 -0.1089       5 (A1) A                  ->    23 (A1) A                  
 -0.1089       5 (A1) B                  ->    23 (A1) B                  

              Summary of significant orbitals:

               Number  Type             Irrep      Energy
               7       Occ  Alpha       5 (A1)    -11.2494
               7       Occ  Beta        5 (A1)    -11.2494
               30      Vir  Alpha      16 (A1)      0.0143
               34      Vir  Alpha      18 (A1)      0.0319
               38      Vir  Alpha      19 (A1)      0.0450
               43      Vir  Alpha      21 (A1)      0.0629
               49      Vir  Alpha      23 (A1)      0.0734
               51      Vir  Alpha      24 (A1)      0.0779
               52      Vir  Alpha      25 (A1)      0.0912
               54      Vir  Alpha      26 (A1)      0.0999
               62      Vir  Alpha      29 (A1)      0.1761
               30      Vir  Beta       16 (A1)      0.0143
               34      Vir  Beta       18 (A1)      0.0319
               38      Vir  Beta       19 (A1)      0.0450
               43      Vir  Beta       21 (A1)      0.0629
               49      Vir  Beta       23 (A1)      0.0734
               51      Vir  Beta       24 (A1)      0.0779
               52      Vir  Beta       25 (A1)      0.0912
               54      Vir  Beta       26 (A1)      0.0999
               62      Vir  Beta       29 (A1)      0.1761


 EOMEE transition 12/A1
 Total energy = -680.08054546 a.u.  Excitation energy = 289.6184 eV.
 R0^2 = 0.0000  R1^2 = 0.7993  R2_CCVV^2 = 0.0016  R2_COVV^2 = 0.0996  Res^2 = 4.71e-05
 Conv-d = yes

 Amplitude    Transitions between orbitals
  0.2116       4 (A1) A                  ->    19 (A1) A                  
  0.2116       4 (A1) B                  ->    19 (A1) B                  
  0.1964       2 (B1) A                  ->    10 (B1) A                  
  0.1964       2 (B1) B                  ->    10 (B1) B                  
  0.1727       4 (A1) A                  ->    18 (A1) A                  
  0.1727       4 (A1) B                  ->    18 (A1) B                  
 -0.1699       1 (B1) A                  ->    10 (B1) A                  
 -0.1699       1 (B1) B                  ->    10 (B1) B                  
 -0.1450       4 (A1) A                  ->    24 (A1) A                  
 -0.1450       4 (A1) B                  ->    24 (A1) B                  
 -0.1355       3 (A1) A                  ->    19 (A1) A                  
 -0.1355       3 (A1) B                  ->    19 (A1) B                  
 -0.1291       3 (A1) A                  ->    18 (A1) A                  
 -0.1291       3 (A1) B                  ->    18 (A1) B                  
  0.1281       2 (B1) A                  ->    11 (B1) A                  
  0.1281       2 (B1) B                  ->    11 (B1) B                  
 -0.1173       4 (A1) A                  ->    26 (A1) A                  
 -0.1173       4 (A1) B                  ->    26 (A1) B                  
  0.1170       4 (A1) A                  ->    16 (A1) A                  
  0.1170       4 (A1) B                  ->    16 (A1) B                  
  0.1082       2 (B1) A                  ->    13 (B1) A                  
  0.1082       2 (B1) B                  ->    13 (B1) B                  
  0.1046       3 (A1) A                  ->    24 (A1) A                  
  0.1046       3 (A1) B                  ->    24 (A1) B                  
  0.1010       3 (A1) A                  ->    26 (A1) A                  
  0.1010       3 (A1) B                  ->    26 (A1) B                  

              Summary of significant orbitals:

               Number  Type             Irrep      Energy
               3       Occ  Alpha       3 (A1)    -11.2547
               5       Occ  Alpha       4 (A1)    -11.2535
               4       Occ  Alpha       1 (B1)    -11.2547
               6       Occ  Alpha       2 (B1)    -11.2533
               3       Occ  Beta        3 (A1)    -11.2547
               5       Occ  Beta        4 (A1)    -11.2535
               4       Occ  Beta        1 (B1)    -11.2547
               6       Occ  Beta        2 (B1)    -11.2533
               30      Vir  Alpha      16 (A1)      0.0143
               34      Vir  Alpha      18 (A1)      0.0319
               38      Vir  Alpha      19 (A1)      0.0450
               51      Vir  Alpha      24 (A1)      0.0779
               54      Vir  Alpha      26 (A1)      0.0999
               31      Vir  Alpha      10 (B1)      0.0202
               35      Vir  Alpha      11 (B1)      0.0334
               45      Vir  Alpha      13 (B1)      0.0647
               30      Vir  Beta       16 (A1)      0.0143
               34      Vir  Beta       18 (A1)      0.0319
               38      Vir  Beta       19 (A1)      0.0450
               51      Vir  Beta       24 (A1)      0.0779
               54      Vir  Beta       26 (A1)      0.0999
               31      Vir  Beta       10 (B1)      0.0202
               35      Vir  Beta       11 (B1)      0.0334
               45      Vir  Beta       13 (B1)      0.0647


 EOMEE transition 13/A1
 Total energy = -680.07550506 a.u.  Excitation energy = 289.7556 eV.
 R0^2 = 0.0000  R1^2 = 0.7992  R2_CCVV^2 = 0.0016  R2_COVV^2 = 0.0996  Res^2 = 7.11e-05
 Conv-d = yes

 Amplitude    Transitions between orbitals
 -0.2962       3 (A1) A                  ->    19 (A1) A                  
 -0.2962       3 (A1) B                  ->    19 (A1) B                  
 -0.2460       3 (A1) A                  ->    16 (A1) A                  
 -0.2460       3 (A1) B                  ->    16 (A1) B                  
 -0.2310       4 (A1) A                  ->    19 (A1) A                  
 -0.2310       4 (A1) B                  ->    19 (A1) B                  
 -0.2105       4 (A1) A                  ->    16 (A1) A                  
 -0.2105       4 (A1) B                  ->    16 (A1) B                  
 -0.1519       3 (A1) A                  ->    28 (A1) A                  
 -0.1519       3 (A1) B                  ->    28 (A1) B                  
  0.1449       3 (A1) A                  ->    24 (A1) A                  
  0.1449       3 (A1) B                  ->    24 (A1) B                  
 -0.1137       4 (A1) A                  ->    28 (A1) A                  
 -0.1137       4 (A1) B                  ->    28 (A1) B                  

              Summary of significant orbitals:

               Number  Type             Irrep      Energy
               3       Occ  Alpha       3 (A1)    -11.2547
               5       Occ  Alpha       4 (A1)    -11.2535
               3       Occ  Beta        3 (A1)    -11.2547
               5       Occ  Beta        4 (A1)    -11.2535
               30      Vir  Alpha      16 (A1)      0.0143
               38      Vir  Alpha      19 (A1)      0.0450
               51      Vir  Alpha      24 (A1)      0.0779
               60      Vir  Alpha      28 (A1)      0.1690
               30      Vir  Beta       16 (A1)      0.0143
               38      Vir  Beta       19 (A1)      0.0450
               51      Vir  Beta       24 (A1)      0.0779
               60      Vir  Beta       28 (A1)      0.1690


 EOMEE transition 14/A1
 Total energy = -680.07332199 a.u.  Excitation energy = 289.8150 eV.
 R0^2 = 0.0000  R1^2 = 0.7994  R2_CCVV^2 = 0.0016  R2_COVV^2 = 0.0995  Res^2 = 4.74e-05
 Conv-d = yes

 Amplitude    Transitions between orbitals
 -0.2900       2 (B1) A                  ->    11 (B1) A                  
 -0.2900       2 (B1) B                  ->    11 (B1) B                  
  0.2069       4 (A1) A                  ->    18 (A1) A                  
  0.2069       4 (A1) B                  ->    18 (A1) B                  
  0.1831       2 (B1) A                  ->    10 (B1) A                  
  0.1831       2 (B1) B                  ->    10 (B1) B                  
  0.1539       2 (B1) A                  ->    17 (B1) A                  
  0.1539       2 (B1) B                  ->    17 (B1) B                  
  0.1415       1 (B1) A                  ->    11 (B1) A                  
  0.1415       1 (B1) B                  ->    11 (B1) B                  
  0.1201       5 (A1) A                  ->    18 (A1) A                  
  0.1201       5 (A1) B                  ->    18 (A1) B                  
 -0.1182       1 (B1) A                  ->    10 (B1) A                  
 -0.1182       1 (B1) B                  ->    10 (B1) B                  
  0.1056       3 (A1) A                  ->    19 (A1) A                  
  0.1056       3 (A1) B                  ->    19 (A1) B                  
[...]
 Oscillator strength (a.u.): 0.000674
 Norm of one-particle transition density matrix:
   A->B: 0.897420;   B->A: 0.855152
   ||gamma^AB||*||gamma^BA||: 0.767431

 ------------------------------------------------------------------------------
 State A: ccsd: 0/A1
 State B: cvs_eomee_ccsd/rhfref/singlets: 15/B1
 Transition dipole moment (a.u.):
   A->B: 0.006000 (X 0.006000, Y 0.000000, Z 0.000000)
   B->A: 0.005861 (X 0.005861, Y 0.000000, Z 0.000000)
 Oscillator strength (a.u.): 0.000250
 Norm of one-particle transition density matrix:
   A->B: 0.896952;   B->A: 0.856760
   ||gamma^AB||*||gamma^BA||: 0.768473

 ------------------------------------------------------------------------------
 State A: ccsd: 0/A1
 State B: cvs_eomee_ccsd/rhfref/singlets: 1/B2
 Transition dipole moment (a.u.):
   A->B: 0.106607 (X 0.000000, Y 0.106607, Z 0.000000)
   B->A: 0.108484 (X 0.000000, Y 0.108484, Z 0.000000)
 Oscillator strength (a.u.): 0.081029
 Norm of one-particle transition density matrix:
   A->B: 0.890524;   B->A: 0.893691
   ||gamma^AB||*||gamma^BA||: 0.795853

 ------------------------------------------------------------------------------
 State A: ccsd: 0/A1
 State B: cvs_eomee_ccsd/rhfref/singlets: 2/B2
 Transition dipole moment (a.u.):
   A->B: 0.092179 (X 0.000000, Y 0.092179, Z 0.000000)
   B->A: 0.093727 (X 0.000000, Y 0.093727, Z 0.000000)
 Oscillator strength (a.u.): 0.060536
 Norm of one-particle transition density matrix:
   A->B: 0.889409;   B->A: 0.892861
   ||gamma^AB||*||gamma^BA||: 0.794119

 ------------------------------------------------------------------------------
 State A: ccsd: 0/A1
 State B: cvs_eomee_ccsd/rhfref/singlets: 3/B2
 Transition dipole moment (a.u.):
   A->B: 0.124628 (X 0.000000, Y -0.124628, Z 0.000000)
   B->A: 0.127166 (X 0.000000, Y -0.127166, Z 0.000000)
 Oscillator strength (a.u.): 0.111065
 Norm of one-particle transition density matrix:
   A->B: 0.888955;   B->A: 0.892489
   ||gamma^AB||*||gamma^BA||: 0.793383

 ------------------------------------------------------------------------------
 State A: ccsd: 0/A1
 State B: cvs_eomee_ccsd/rhfref/singlets: 4/B2
 Transition dipole moment (a.u.):
   A->B: 0.087747 (X 0.000000, Y -0.087747, Z 0.000000)
   B->A: 0.089149 (X 0.000000, Y -0.089149, Z 0.000000)
 Oscillator strength (a.u.): 0.055057
 Norm of one-particle transition density matrix:
   A->B: 0.888262;   B->A: 0.892016
   ||gamma^AB||*||gamma^BA||: 0.792343

 ------------------------------------------------------------------------------
 State A: ccsd: 0/A1
 State B: cvs_eomee_ccsd/rhfref/singlets: 5/B2
 Transition dipole moment (a.u.):
   A->B: 0.005922 (X 0.000000, Y 0.005922, Z 0.000000)
   B->A: 0.005453 (X 0.000000, Y 0.005453, Z 0.000000)
 Oscillator strength (a.u.): 0.000228
 Norm of one-particle transition density matrix:
   A->B: 0.868057;   B->A: 0.856797
   ||gamma^AB||*||gamma^BA||: 0.743748

 ------------------------------------------------------------------------------
 State A: ccsd: 0/A1
 State B: cvs_eomee_ccsd/rhfref/singlets: 6/B2
 Transition dipole moment (a.u.):
   A->B: 0.001216 (X 0.000000, Y 0.001216, Z 0.000000)
   B->A: 0.001164 (X 0.000000, Y 0.001164, Z 0.000000)
 Oscillator strength (a.u.): 0.000010
 Norm of one-particle transition density matrix:
   A->B: 0.867625;   B->A: 0.856057
   ||gamma^AB||*||gamma^BA||: 0.742736

 ------------------------------------------------------------------------------
 State A: ccsd: 0/A1
 State B: cvs_eomee_ccsd/rhfref/singlets: 7/B2
 Transition dipole moment (a.u.):
   A->B: 0.006311 (X 0.000000, Y -0.006311, Z 0.000000)
   B->A: 0.006645 (X 0.000000, Y -0.006645, Z 0.000000)
 Oscillator strength (a.u.): 0.000297
 Norm of one-particle transition density matrix:
   A->B: 0.899385;   B->A: 0.858548
   ||gamma^AB||*||gamma^BA||: 0.772165

 ------------------------------------------------------------------------------
 State A: ccsd: 0/A1
 State B: cvs_eomee_ccsd/rhfref/singlets: 8/B2
 Transition dipole moment (a.u.):
   A->B: 0.015033 (X 0.000000, Y -0.015033, Z 0.000000)
   B->A: 0.015539 (X 0.000000, Y -0.015539, Z 0.000000)
 Oscillator strength (a.u.): 0.001655
 Norm of one-particle transition density matrix:
   A->B: 0.899376;   B->A: 0.858680
   ||gamma^AB||*||gamma^BA||: 0.772276

 ------------------------------------------------------------------------------
 State A: ccsd: 0/A1
 State B: cvs_eomee_ccsd/rhfref/singlets: 9/B2
 Transition dipole moment (a.u.):
   A->B: 0.024693 (X 0.000000, Y 0.024693, Z 0.000000)
   B->A: 0.025137 (X 0.000000, Y 0.025137, Z 0.000000)
 Oscillator strength (a.u.): 0.004398
 Norm of one-particle transition density matrix:
   A->B: 0.899186;   B->A: 0.858360
   ||gamma^AB||*||gamma^BA||: 0.771825

 ------------------------------------------------------------------------------
 State A: ccsd: 0/A1
 State B: cvs_eomee_ccsd/rhfref/singlets: 10/B2
 Transition dipole moment (a.u.):
   A->B: 0.010944 (X 0.000000, Y 0.010944, Z 0.000000)
   B->A: 0.010725 (X 0.000000, Y 0.010725, Z 0.000000)
 Oscillator strength (a.u.): 0.000834
 Norm of one-particle transition density matrix:
   A->B: 0.898190;   B->A: 0.855645
   ||gamma^AB||*||gamma^BA||: 0.768532

 ------------------------------------------------------------------------------
 State A: ccsd: 0/A1
 State B: cvs_eomee_ccsd/rhfref/singlets: 11/B2
 Transition dipole moment (a.u.):
   A->B: 0.010261 (X 0.000000, Y 0.010261, Z 0.000000)
   B->A: 0.010142 (X 0.000000, Y 0.010142, Z 0.000000)
 Oscillator strength (a.u.): 0.000739
 Norm of one-particle transition density matrix:
   A->B: 0.898045;   B->A: 0.855579
   ||gamma^AB||*||gamma^BA||: 0.768348

 ------------------------------------------------------------------------------
 State A: ccsd: 0/A1
 State B: cvs_eomee_ccsd/rhfref/singlets: 12/B2
 Transition dipole moment (a.u.):
   A->B: 0.012997 (X 0.000000, Y 0.012997, Z 0.000000)
   B->A: 0.013245 (X 0.000000, Y 0.013245, Z 0.000000)
 Oscillator strength (a.u.): 0.001223
 Norm of one-particle transition density matrix:
   A->B: 0.898015;   B->A: 0.855487
   ||gamma^AB||*||gamma^BA||: 0.768240

 ------------------------------------------------------------------------------
 State A: ccsd: 0/A1
 State B: cvs_eomee_ccsd/rhfref/singlets: 13/B2
 Transition dipole moment (a.u.):
   A->B: 0.007394 (X 0.000000, Y 0.007394, Z 0.000000)
   B->A: 0.007284 (X 0.000000, Y 0.007284, Z 0.000000)
 Oscillator strength (a.u.): 0.000383
 Norm of one-particle transition density matrix:
   A->B: 0.897978;   B->A: 0.855619
   ||gamma^AB||*||gamma^BA||: 0.768327

 ------------------------------------------------------------------------------
 State A: ccsd: 0/A1
 State B: cvs_eomee_ccsd/rhfref/singlets: 14/B2
 Transition dipole moment (a.u.):
   A->B: 0.000635 (X 0.000000, Y 0.000635, Z 0.000000)
   B->A: 0.000960 (X 0.000000, Y 0.000960, Z 0.000000)
 Oscillator strength (a.u.): 0.000004
 Norm of one-particle transition density matrix:
   A->B: 0.897703;   B->A: 0.855150
   ||gamma^AB||*||gamma^BA||: 0.767671

 ------------------------------------------------------------------------------
 State A: ccsd: 0/A1
 State B: cvs_eomee_ccsd/rhfref/singlets: 15/B2
 Transition dipole moment (a.u.):
   A->B: 0.004018 (X 0.000000, Y -0.004018, Z 0.000000)
   B->A: 0.003836 (X 0.000000, Y -0.003836, Z 0.000000)
 Oscillator strength (a.u.): 0.000110
 Norm of one-particle transition density matrix:
   A->B: 0.898284;   B->A: 0.855230
   ||gamma^AB||*||gamma^BA||: 0.768239


 All requested transition properties have been computed

 Transition Properties:   CPU 518.75 s  wall 110.88 s

 Total ccman2 time:   CPU 150387.62 s  wall 21695.59 s

 
 --------------------------------------------------------------
             Orbital Energies (a.u.) and Symmetries
 --------------------------------------------------------------
 
 Alpha MOs, Restricted
 -- Occupied --                  
-104.84  -11.31  -11.25  -11.25  -11.25  -11.25  -11.25  -10.57
  1 A1    2 A1    3 A1    1 B1    4 A1    2 B1    5 A1    6 A1                 
 -8.034  -8.031  -8.031  -1.196  -1.124  -1.036  -1.000  -0.850
  7 A1    3 B1    1 B2    8 A1    9 A1    4 B1   10 A1    5 B1                 
 -0.823  -0.715  -0.651  -0.651  -0.607  -0.593  -0.547  -0.520
 11 A1   12 A1    6 B1   13 A1    7 B1   14 A1    2 B2    8 B1                 
 -0.515  -0.471  -0.456  -0.354  -0.338
 15 A1    3 B2    9 B1    1 A2    4 B2                                         
 -- Virtual --                   
  0.014   0.020   0.021   0.032   0.032   0.033   0.043   0.044
 16 A1   10 B1   17 A1    5 B2   18 A1   11 B1    2 A2    6 B2                 
  0.045   0.048   0.054   0.055   0.056   0.063   0.063   0.065
 19 A1   20 A1   12 B1    3 A2    7 B2   21 A1    8 B2   13 B1                 
  0.068   0.069   0.070   0.073   0.074   0.078   0.091   0.096
 22 A1    9 B2   14 B1   23 A1   15 B1   24 A1   25 A1   16 B1                 
  0.100   0.102   0.104   0.106   0.126   0.163   0.169   0.172
 26 A1    4 A2   10 B2   17 B1   27 A1   11 B2   28 A1   18 B1                 
  0.176   0.180   0.181   0.192   0.211   0.213   0.214   0.222
 29 A1    5 A2   12 B2   30 A1   19 B1   31 A1   13 B2   32 A1                 
  0.222   0.229   0.232   0.235   0.238   0.243   0.244   0.247
 20 B1   14 B2    6 A2   21 B1   33 A1   15 B2   34 A1   22 B1                 
  0.252   0.264   0.280   0.291   0.295   0.303   0.314   0.330
 23 B1   35 A1   36 A1   24 B1   25 B1   37 A1   38 A1   26 B1                 
  0.357   0.366   0.378   0.414   0.418   0.432   0.441   0.491
 16 B2   39 A1   40 A1   41 A1   27 B1   42 A1   28 B1   43 A1                 
  0.500   0.509   0.509   0.620   0.631   0.643   0.652   0.662
 29 B1   44 A1   30 B1   45 A1   31 B1   32 B1   17 B2   46 A1                 
  0.720   0.730   0.742   0.743   0.745   0.772   0.782   0.794
 47 A1   33 B1   48 A1   18 B2   34 B1    7 A2   19 B2   35 B1                 
  0.821   0.822   0.823   0.881   0.884   0.898   0.934   0.936
 49 A1    8 A2   20 B2   50 A1   21 B2   51 A1   52 A1   36 B1                 
  0.955   0.973   1.018   1.024   1.039   1.060   1.067   1.082
 37 B1   53 A1   38 B1   54 A1   55 A1   39 B1   22 B2   56 A1                 
  1.095   1.100   1.133   1.139   1.173   1.192   1.221   1.225
 57 A1   40 B1   41 B1    9 A2   58 A1   42 B1   59 A1   23 B2                 
  1.235   1.273   1.309   1.352   1.376   1.443   1.467   1.475
 10 A2   60 A1   11 A2   24 B2   12 A2   61 A1   43 B1   62 A1                 
  1.581   1.663   1.728   1.776   1.787   1.824   1.831   1.844
 25 B2   63 A1   44 B1   64 A1   45 B1   26 B2   13 A2   65 A1                 
  1.892   1.908   1.909   1.963   1.999   2.008   2.042   2.103
 27 B2   66 A1   46 B1   67 A1   47 B1   28 B2   14 A2   48 B1                 
  2.168   2.218   2.220   2.221   2.236   2.243   2.287   2.323
 68 A1   49 B1   15 A2   29 B2   50 B1   69 A1   30 B2   70 A1                 
  2.352   2.368   2.392   2.579   2.611   2.647   2.684   2.748
 51 B1   16 A2   71 A1   31 B2   52 B1   17 A2   32 B2   72 A1                 
  2.777   2.798   2.810   2.867   2.914   2.935   2.981   2.997
 53 B1   73 A1   54 B1   55 B1   74 A1   75 A1   76 A1   77 A1                 
  3.009   3.026   3.038   3.043   3.066   3.191   3.194   3.205
 56 B1   78 A1   79 A1   57 B1   33 B2   34 B2   18 A2   58 B1                 
  3.210   3.283   3.288   3.321   3.473   3.567   3.631   3.757
 80 A1   35 B2   19 A2   59 B1   36 B2   60 B1   81 A1   61 B1                 
  3.782   3.902   3.919   4.022   4.189   4.384   4.442   4.510
 82 A1   62 B1   83 A1   84 A1   85 A1   63 B1   86 A1   87 A1                 
  4.516   5.123   5.263   5.442   5.447   5.754   5.779   6.187
 64 B1   88 A1   65 B1   89 A1   66 B1   90 A1   67 B1   91 A1                 
 10.544  20.635  20.695  20.708  20.824  20.852  21.124  26.795
 92 A1   93 A1   94 A1   68 B1   95 A1   69 B1   96 A1   37 B2                 
 27.056  27.522  80.200  80.266  80.282  80.380  80.405  80.613
 70 B1   97 A1   98 A1   99 A1   71 B1  100 A1   72 B1  101 A1                 
219.412 322.039 322.101 322.118 322.201 322.223 322.3901431.607
102 A1  103 A1  104 A1   73 B1  105 A1   74 B1  106 A1  107 A1                 
*******1431.6801431.7491431.7681431.9088749.8448749.8938749.909
108 A1   75 B1  109 A1   76 B1  110 A1  111 A1  112 A1   77 B1                 
*******8749.9818750.093
113 A1   78 B1  114 A1                                                         
 
 Beta MOs, Restricted
 -- Occupied --                  
-104.84  -11.31  -11.25  -11.25  -11.25  -11.25  -11.25  -10.57
  1 A1    2 A1    3 A1    1 B1    4 A1    2 B1    5 A1    6 A1                 
 -8.034  -8.031  -8.031  -1.196  -1.124  -1.036  -1.000  -0.850
  7 A1    3 B1    1 B2    8 A1    9 A1    4 B1   10 A1    5 B1                 
 -0.823  -0.715  -0.651  -0.651  -0.607  -0.593  -0.547  -0.520
 11 A1   12 A1    6 B1   13 A1    7 B1   14 A1    2 B2    8 B1                 
 -0.515  -0.471  -0.456  -0.354  -0.338
 15 A1    3 B2    9 B1    1 A2    4 B2                                         
 -- Virtual --                   
  0.014   0.020   0.021   0.032   0.032   0.033   0.043   0.044
 16 A1   10 B1   17 A1    5 B2   18 A1   11 B1    2 A2    6 B2                 
  0.045   0.048   0.054   0.055   0.056   0.063   0.063   0.065
 19 A1   20 A1   12 B1    3 A2    7 B2   21 A1    8 B2   13 B1                 
  0.068   0.069   0.070   0.073   0.074   0.078   0.091   0.096
 22 A1    9 B2   14 B1   23 A1   15 B1   24 A1   25 A1   16 B1                 
  0.100   0.102   0.104   0.106   0.126   0.163   0.169   0.172
 26 A1    4 A2   10 B2   17 B1   27 A1   11 B2   28 A1   18 B1                 
  0.176   0.180   0.181   0.192   0.211   0.213   0.214   0.222
 29 A1    5 A2   12 B2   30 A1   19 B1   31 A1   13 B2   32 A1                 
  0.222   0.229   0.232   0.235   0.238   0.243   0.244   0.247
 20 B1   14 B2    6 A2   21 B1   33 A1   15 B2   34 A1   22 B1                 
  0.252   0.264   0.280   0.291   0.295   0.303   0.314   0.330
 23 B1   35 A1   36 A1   24 B1   25 B1   37 A1   38 A1   26 B1                 
  0.357   0.366   0.378   0.414   0.418   0.432   0.441   0.491
 16 B2   39 A1   40 A1   41 A1   27 B1   42 A1   28 B1   43 A1                 
  0.500   0.509   0.509   0.620   0.631   0.643   0.652   0.662
 29 B1   44 A1   30 B1   45 A1   31 B1   32 B1   17 B2   46 A1                 
  0.720   0.730   0.742   0.743   0.745   0.772   0.782   0.794
 47 A1   33 B1   48 A1   18 B2   34 B1    7 A2   19 B2   35 B1                 
  0.821   0.822   0.823   0.881   0.884   0.898   0.934   0.936
 49 A1    8 A2   20 B2   50 A1   21 B2   51 A1   52 A1   36 B1                 
  0.955   0.973   1.018   1.024   1.039   1.060   1.067   1.082
 37 B1   53 A1   38 B1   54 A1   55 A1   39 B1   22 B2   56 A1                 
  1.095   1.100   1.133   1.139   1.173   1.192   1.221   1.225
 57 A1   40 B1   41 B1    9 A2   58 A1   42 B1   59 A1   23 B2                 
  1.235   1.273   1.309   1.352   1.376   1.443   1.467   1.475
 10 A2   60 A1   11 A2   24 B2   12 A2   61 A1   43 B1   62 A1                 
  1.581   1.663   1.728   1.776   1.787   1.824   1.831   1.844
 25 B2   63 A1   44 B1   64 A1   45 B1   26 B2   13 A2   65 A1                 
  1.892   1.908   1.909   1.963   1.999   2.008   2.042   2.103
 27 B2   66 A1   46 B1   67 A1   47 B1   28 B2   14 A2   48 B1                 
  2.168   2.218   2.220   2.221   2.236   2.243   2.287   2.323
 68 A1   49 B1   15 A2   29 B2   50 B1   69 A1   30 B2   70 A1                 
  2.352   2.368   2.392   2.579   2.611   2.647   2.684   2.748
 51 B1   16 A2   71 A1   31 B2   52 B1   17 A2   32 B2   72 A1                 
  2.777   2.798   2.810   2.867   2.914   2.935   2.981   2.997
 53 B1   73 A1   54 B1   55 B1   74 A1   75 A1   76 A1   77 A1                 
  3.009   3.026   3.038   3.043   3.066   3.191   3.194   3.205
 56 B1   78 A1   79 A1   57 B1   33 B2   34 B2   18 A2   58 B1                 
  3.210   3.283   3.288   3.321   3.473   3.567   3.631   3.757
 80 A1   35 B2   19 A2   59 B1   36 B2   60 B1   81 A1   61 B1                 
  3.782   3.902   3.919   4.022   4.189   4.384   4.442   4.510
 82 A1   62 B1   83 A1   84 A1   85 A1   63 B1   86 A1   87 A1                 
  4.516   5.123   5.263   5.442   5.447   5.754   5.779   6.187
 64 B1   88 A1   65 B1   89 A1   66 B1   90 A1   67 B1   91 A1                 
 10.544  20.635  20.695  20.708  20.824  20.852  21.124  26.795
 92 A1   93 A1   94 A1   68 B1   95 A1   69 B1   96 A1   37 B2                 
 27.056  27.522  80.200  80.266  80.282  80.380  80.405  80.613
 70 B1   97 A1   98 A1   99 A1   71 B1  100 A1   72 B1  101 A1                 
219.412 322.039 322.101 322.118 322.201 322.223 322.3901431.607
102 A1  103 A1  104 A1   73 B1  105 A1   74 B1  106 A1  107 A1                 
*******1431.6801431.7491431.7681431.9088749.8448749.8938749.909
108 A1   75 B1  109 A1   76 B1  110 A1  111 A1  112 A1   77 B1                 
*******8749.9818750.093
113 A1   78 B1  114 A1                                                         
 --------------------------------------------------------------
 
          Ground-State Mulliken Net Atomic Charges

     Atom                 Charge (a.u.)
  ----------------------------------------
      1 H                     0.191423
      2 C                    -0.467624
      3 C                    -0.325326
      4 H                     0.223694
      5 C                    -0.337041
      6 H                     0.184041
      7 C                    -0.325326
      8 H                     0.223694
      9 C                    -0.467624
     10 H                     0.191423
     11 C                     0.389122
     12 Cl                    0.519542
  ----------------------------------------
  Sum of atomic charges =    -0.000000

 -----------------------------------------------------------------
                    Cartesian Multipole Moments
 -----------------------------------------------------------------
    Charge (ESU x 10^10)
                 0.0000
    Dipole Moment (Debye)
         X       0.0000      Y       0.0000      Z      -1.9696
       Tot       1.9696
    Quadrupole Moments (Debye-Ang)
        XX     -42.4455     XY       0.0000     YY     -52.7498
        XZ       0.0000     YZ      -0.0000     ZZ     -46.7168
    Octopole Moments (Debye-Ang^2)
       XXX       0.0000    XXY       0.0000    XYY       0.0000
       YYY      -0.0000    XXZ      -1.4039    XYZ      -0.0000
       YYZ       7.5122    XZZ       0.0000    YZZ       0.0000
       ZZZ      -6.2786
    Hexadecapole Moments (Debye-Ang^3)
      XXXX    -275.2649   XXXY       0.0000   XXYY     -69.5895
      XYYY       0.0000   YYYY     -64.7746   XXXZ       0.0000
      XXYZ      -0.0000   XYYZ      -0.0000   YYYZ       0.0000
      XXZZ    -181.1018   XYZZ       0.0000   YYZZ    -165.9787
      XZZZ       0.0000   YZZZ       0.0000   ZZZZ    -787.0201
 -----------------------------------------------------------------
Archival summary:
1\1\n-62-23-25\SP\ProcedureUnspecified\BasisUnspecified\l165\malop\TueOct2322:36:102018TueOct2322:36:102018\0\\#,ProcedureUnspecified,BasisUnspecified,\\0,1\Cl\C,1,1.73093\C,2,1.39121,1,119.398\H,3,1.08039,2,119.798,1,0,0\C,2,1.39121,1,119.398,3,-180,0\H,5,1.08039,2,119.798,1,0,0\C,3,1.39191,2,119.079,1,180,0\H,7,1.08135,3,119.367,2,-180,0\C,5,1.39191,2,119.079,1,180,0\H,9,1.08135,5,119.367,2,180,0\C,7,1.39245,3,120.451,2,0,0\H,11,1.08085,7,120.132,3,180,0\\HF=-689.680939\\@

 Total job time:  28939.64s(wall), 157779.51s(cpu) 
 Tue Oct 23 22:36:10 2018

        *************************************************************
        *                                                           *
        *  Thank you very much for using Q-Chem.  Have a nice day.  *
        *                                                           *
        *************************************************************


