Q-Chem Developer Version!
                  Welcome to Q-Chem
     A Quantum Leap Into The Future Of Chemistry


 Q-Chem 5.1, Q-Chem, Inc., Pleasanton, CA (2018)

 Yihan Shao,  Zhengting Gan,  E. Epifanovsky,  A. T. B. Gilbert,  M. Wormit,  
 J. Kussmann,  A. W. Lange,  A. Behn,  Jia Deng,  Xintian Feng,  D. Ghosh,  
 M. Goldey,  P. R. Horn,  L. D. Jacobson,  I. Kaliman,  T. Kus,  A. Landau,  
 Jie Liu,  E. I. Proynov,  R. M. Richard,  R. P. Steele,  E. J. Sundstrom,  
 H. L. Woodcock III,  P. M. Zimmerman,  D. Zuev,  B. Albrecht,  E. Alguire,  
 S. A. Baeppler,  D. Barton,  Z. Benda,  Y. A. Bernard,  E. J. Berquist,  
 K. B. Bravaya,  H. Burton,  D. Casanova,  Chun-Min Chang,  Yunqing Chen,  
 A. Chien,  K. D. Closser,  M. P. Coons,  S. Coriani,  S. Dasgupta,  
 A. L. Dempwolff,  M. Diedenhofen,  Hainam Do,  R. G. Edgar,  Po-Tung Fang,  
 S. Faraji,  S. Fatehi,  Qingguo Feng,  K. D. Fenk,  J. Fosso-Tande,  
 Qinghui Ge,  A. Ghysels,  G. Gidofalvi,  J. Gomes,  J. Gonthier,  A. Gunina,  
 D. Hait,  M. W. D. Hanson-Heine,  P. H. P. Harbach,  A. W. Hauser,  
 J. E. Herr,  E. G. Hohenstein,  Z. C. Holden,  Kerwin Hui,  B. C. Huynh,  
 T.-C. Jagau,  Hyunjun Ji,  B. Kaduk,  K. Khistyaev,  Jaehoon Kim,  
 P. Klunzinger,  K. Koh,  D. Kosenkov,  L. Koulias,  T. Kowalczyk,  
 C. M. Krauter,  A. Kunitsa,  Ka Un Lao,  A. Laurent,  K. V. Lawler,  
 Joonho Lee,  D. Lefrancois,  S. Lehtola,  D. S. Levine,  Yi-Pei Li,  
 You-Sheng Lin,  Fenglai Liu,  E. Livshits,  A. Luenser,  P. Manohar,  
 E. Mansoor,  S. F. Manzer,  Shan-Ping Mao,  Yuezhi Mao,  N. Mardirossian,  
 A. V. Marenich,  T. Markovich,  L. A. Martinez-Martinez,  S. A. Maurer,  
 N. J. Mayhall,  S. C. McKenzie,  J.-M. Mewes,  A. F. Morrison,  
 J. W. Mullinax,  K. Nanda,  T. S. Nguyen-Beck,  R. Olivares-Amaya,  
 J. A. Parkhill,  T. M. Perrine,  F. Plasser,  P. Pokhilko,  S. Prager,  
 A. Prociuk,  E. Ramos,  D. R. Rehn,  F. Rob,  M. Schneider,  N. Sergueev,  
 S. M. Sharada,  S. Sharma,  D. W. Small,  T. Stauch,  T. Stein,  
 Yu-Chuan Su,  A. J. W. Thom,  A. Tkatchenko,  T. Tsuchimochi,  N. M. Tubman,  
 L. Vogt,  M. L. Vidal,  O. Vydrov,  M. A. Watson,  J. Wenzel,  
 M. de Wergifosse,  T. A. Wesolowski,  A. White,  J. Witte,  A. Yamada,  
 Jun Yang,  K. Yao,  S. Yeganeh,  S. R. Yost,  Zhi-Qiang You,  A. Zech,  
 Igor Ying Zhang,  Xing Zhang,  Yan Zhao,  Ying Zhu,  B. R. Brooks,  
 G. K. L. Chan,  C. J. Cramer,  M. S. Gordon,  W. J. Hehre,  A. Klamt,  
 M. W. Schmidt,  C. D. Sherrill,  D. G. Truhlar,  A. Aspuru-Guzik,  R. Baer,  
 A. T. Bell,  N. A. Besley,  Jeng-Da Chai,  A. E. DePrince, III,  
 R. A. DiStasio Jr.,  A. Dreuw,  B. D. Dunietz,  T. R. Furlani,  
 Chao-Ping Hsu,  Yousung Jung,  Jing Kong,  D. S. Lambrecht,  WanZhen Liang,  
 C. Ochsenfeld,  V. A. Rassolov,  L. V. Slipchenko,  J. E. Subotnik,  
 T. Van Voorhis,  J. M. Herbert,  A. I. Krylov,  P. M. W. Gill,  M. Head-Gordon

 Contributors to earlier versions of Q-Chem not listed above: 
 R. D. Adamson,  B. Austin,  J. Baker,  G. J. O. Beran,  K. Brandhorst,  
 S. T. Brown,  E. F. C. Byrd,  A. K. Chakraborty,  C.-L. Cheng,  
 Siu Hung Chien,  D. M. Chipman,  D. L. Crittenden,  H. Dachsel,  
 R. J. Doerksen,  A. D. Dutoi,  L. Fusti-Molnar,  W. A. Goddard III,  
 A. Golubeva-Zadorozhnaya,  S. R. Gwaltney,  G. Hawkins,  A. Heyden,  
 S. Hirata,  G. Kedziora,  F. J. Keil,  C. Kelley,  Jihan Kim,  R. A. King,  
 R. Z. Khaliullin,  P. P. Korambath,  W. Kurlancheek,  A. M. Lee,  M. S. Lee,  
 S. V. Levchenko,  Ching Yeh Lin,  D. Liotard,  R. C. Lochan,  I. Lotan,  
 P. E. Maslen,  N. Nair,  D. P. O'Neill,  D. Neuhauser,  E. Neuscamman,  
 C. M. Oana,  R. Olson,  B. Peters,  R. Peverati,  P. A. Pieniazek,  
 Y. M. Rhee,  J. Ritchie,  M. A. Rohrdanz,  E. Rosta,  N. J. Russ,  
 H. F. Schaefer III,  N. E. Schultz,  N. Shenvi,  A. C. Simmonett,  A. Sodt,  
 D. Stuck,  K. S. Thanthiriwatte,  V. Vanovschi,  Tao Wang,  A. Warshel,  
 C. F. Williams,  Q. Wu,  X. Xu,  W. Zhang

 Please cite Q-Chem as follows:
 Y. Shao et al., Mol. Phys. 113, 184-215 (2015)
 DOI: 10.1080/00268976.2014.952696

 Q-Chem 5.1.1 for Intel X86 EM64T Linux

 Parts of Q-Chem use Armadillo 8.300.2 (Tropical Shenanigans).
 http://arma.sourceforge.net/

 Q-Chem begins on Mon Jan 21 10:14:03 2019  


Host: 0

     Scratch files written to /work1/malop/qc_7646398.hnode2//
Input Ideriv = 0
Curr. Ideriv = -1
Max.  Ideriv = 0

Checking the input file for inconsistencies... 	...done.

--------------------------------------------------------------
User input:
--------------------------------------------------------------
$comment
EOM-CCSD/cc-pVTZ optimized geometry for B2 cation 
NEXAFS
basis = 6-311(2+,+)G** (ucC)
$end

$molecule
+1 2
H        -2.1651573376    0.0000000000    0.3879499861
C        -1.2470507240    0.0000000000   -0.1801247700
C        -1.2361338652    0.0000000000   -1.5492083889
H        -2.1609781249    0.0000000000   -2.1059158595
C         0.0000000000    0.0000000000   -2.2400161949
H         0.0000000000    0.0000000000   -3.3212297746
C         1.2361338652    0.0000000000   -1.5492083889
H         2.1609781249    0.0000000000   -2.1059158595
C         1.2470507240    0.0000000000   -0.1801247700
H         2.1651573376    0.0000000000    0.3879499861
C         0.0000000000    0.0000000000    0.5119321622
Cl        0.0000000000    0.0000000000    2.1842696329
$end

$rem
   JOB_TYPE  =  SP
   BASIS  =  general
   METHOD  =  EOM-CCSD
   CVS_EE_STATES = [10,10,10,10]
   eom_preconv_singles = true
   n_frozen_core = fc
   cc_trans_prop = true
   use_libqints = 1   !use new int library (will be def in trunk)
   cc_memory = 100000
   EOM_DAVIDSON_MAX_ITER 200
   EOM_DAVIDSON_MAXVECTORS = 1000
   eom_davidson_convergence = 4
$end

$basis
H    0
6-311(2+,+)G**
****
Cl   0
6-311(2+,+)G**
****
C    0
S    1    1.000000
   4.56324000E+03    1.96665000E-03
S    1    1.000000
   6.82024000E+02    1.52306000E-02
S    1    1.000000
   1.54973000E+02    7.61269000E-02
S    1    1.000000
   4.44553000E+01    2.60801000E-01
S    1    1.000000
   1.30290000E+01    6.16462000E-01
S    1    1.000000
   1.82773000E+00    2.21006000E-01
SP   3    1.000000
   2.09642000E+01    1.14660000E-01   4.02487000E-02
   4.80331000E+00    9.19999000E-01   2.37594000E-01
   1.45933000E+00   -3.03068000E-03   8.15854000E-01
SP   1    1.000000
   4.83456000E-01    1.00000000E+00   1.00000000E+00
SP   1    1.000000
   1.45585000E-01    1.00000000E+00   1.00000000E+00
SP   1    1.000000
   4.38000000E-02    1.00000000E+00   1.00000000E+00
SP   1    1.000000
   1.31927711E-02    1.00000000E+00   1.00000000E+00
D    1    1.000000
   6.26000000E-01    1.00000000E+00
****
end

--------------------------------------------------------------

 Q-Chem warning in module forms1/BasisType.C, line 1761:

 Setting pure/cartesian flag to 2111 for general basis


 Requested basis set is non-standard
 There are 111 shells and 255 basis functions
MEM_TOTAL is adjusted to CC_MEMORY + MEM_STATIC!
 Total memory of 100192MB is distributed as follows: 
   QALLOC including MEM_STATIC uses 192MB
   MEM_STATIC is set to 192MB
   CCMAN JOB total memory use is  100000MB
 Warning: actual memory use might exceed 100192MB

 Total QAlloc Memory Limit    192 MB
 Mega-Array Size       188 MB
 MEM_STATIC part       192 MB
 ----------------------------------------------------------------
             Standard Nuclear Orientation (Angstroms)
    I     Atom           X                Y                Z
 ----------------------------------------------------------------
    1      H      -2.1651573376     0.0000000000     0.4007961907
    2      C      -1.2470507240     0.0000000000    -0.1672785654
    3      C      -1.2361338652    -0.0000000000    -1.5363621843
    4      H      -2.1609781249    -0.0000000000    -2.0930696549
    5      C       0.0000000000    -0.0000000000    -2.2271699903
    6      H       0.0000000000    -0.0000000000    -3.3083835700
    7      C       1.2361338652    -0.0000000000    -1.5363621843
    8      H       2.1609781249    -0.0000000000    -2.0930696549
    9      C       1.2470507240    -0.0000000000    -0.1672785654
   10      H       2.1651573376    -0.0000000000     0.4007961907
   11      C      -0.0000000000     0.0000000000     0.5247783668
   12      Cl     -0.0000000000     0.0000000000     2.1971158375
 ----------------------------------------------------------------
 Molecular Point Group                 C2v   NOp =  4
 Largest Abelian Subgroup              C2v   NOp =  4
 Nuclear Repulsion Energy =   317.2698949856 hartrees
 There are       29 alpha and       28 beta electrons

                       Distance Matrix (Angstroms)
             H (  1)   C (  2)   C (  3)   H (  4)   C (  5)   H (  6)
   C (  2)  1.079643
   C (  3)  2.148410  1.369127
   H (  4)  2.493869  2.131651  1.079472
   C (  5)  3.405013  2.407963  1.416066  2.165135
   H (  6)  4.294871  3.379597  2.160576  2.479277  1.081214
   C (  7)  3.914251  2.835594  2.472268  3.442425  1.416066  2.160576
   H (  8)  4.993477  3.914503  3.442425  4.321956  2.165135  2.479277
   C (  9)  3.459172  2.494101  2.835594  3.914503  2.407963  3.379597
   H ( 10)  4.330315  3.459172  3.914251  4.993477  3.405013  4.294871
   C ( 11)  2.168704  1.426211  2.403399  3.394548  2.751948  3.833162
   Cl( 12)  2.813302  2.673106  3.932796  4.803698  4.424286  5.505499
             C (  7)   H (  8)   C (  9)   H ( 10)   C ( 11)
   H (  8)  1.079472
   C (  9)  1.369127  2.131651
   H ( 10)  2.148410  2.493869  1.079643
   C ( 11)  2.403399  3.394548  1.426211  2.168704
   Cl( 12)  3.932796  4.803698  2.673106  2.813302  1.672337

 A cutoff of  1.0D-14 yielded   5293 shell pairs
 There are     31262 function pairs (     33072 Cartesian)

 -------------------------------------------------------
 OpenMP Integral Computing Module                       
 Release: version 1.0, May 2013, Q-Chem Inc. Pittsburgh 
 -------------------------------------------------------
 Integral Job Info:
 Integral job number is                      11
 Integral operator is                         1
 short-range coefficients                     0
 long-range coefficients              100000000
 Omega coefficients                           0
 if combine SR and LR in K                    0
 Integral screening is                        0
 Integral computing path is                   2
 max size of driver memory is            800000
 size of driver memory is                593474
 size of scratch memory is              8114252
 max col of scratch BK array               1296
 max len of scratch array in speh3          155
 max len of scratch index in speh4           18
 max int batch size is                      520
 min int batch size is                       52
 fixed nKL is                                52
 max L of basis functions is                  2
 order of int derivative is                   0
 number of shells is                        111
 number of basis is                         262
 number of cartesian basis is               262
 number of contracted shell pairs          5293
 number of primitive shell pairs           7827
 maxK2 (contraction) of shell pair           36
 max number of K2 of shell pair               1
 max number of CS2 of shell pair           1512
 max number of PS2 of shell pair           1512
 mem total for path MDJ                  543004
 -------------------------------------------------------
 Smallest overlap matrix eigenvalue = 1.12E-08
 Linear dependence detected in AO basis
 Tighter screening thresholds may be required for diffuse basis sets
 Use S2THRESH > 14 and THRESH = 14 in case of SCF convergence issues
 Number of orthogonalized atomic orbitals = 248
 Maximum deviation from orthogonality = 5.413E-11

 Scale SEOQF with 1.000000e-01/1.000000e-01/1.000000e-01

 Standard Electronic Orientation quadrupole field applied
 Nucleus-field energy     =    -0.0000000154 hartrees
 Guess MOs from core Hamiltonian diagonalization

 -----------------------------------------------------------------------
  General SCF calculation program by
  Eric Jon Sundstrom, Paul Horn, Yuezhi Mao, Dmitri Zuev, Alec White,
  David Stuck, Shaama M.S., Shane Yost, Joonho Lee, David Small,
  Daniel Levine, Susi Lehtola, Hugh Burton, Evgeny Epifanovsky
 -----------------------------------------------------------------------
 Hartree-Fock
 A unrestricted SCF calculation will be
 performed using DIIS
 SCF converges when DIIS error is below 1.0e-08
 ---------------------------------------
  Cycle       Energy         DIIS error
 ---------------------------------------
    1    -584.6782077256      7.03e-02  
    2    -446.9892410015      5.17e-02  
    3    -559.4514449384      4.72e-02  
    4    -659.6014445307      2.65e-02  
    5    -655.1189861142      3.21e-02  
    6    -687.8120473378      8.05e-03  
    7    -689.0890025680      2.48e-03  
    8    -689.3402062155      6.09e-04  
    9    -689.3556636315      2.08e-04  
   10    -689.3590949682      1.07e-04  
   11    -689.3606282434      6.36e-05  
   12    -689.3613796092      4.04e-05  
   13    -689.3617880897      3.04e-05  
   14    -689.3621343274      2.56e-05  
   15    -689.3624458419      2.16e-05  
   16    -689.3628894575      1.44e-05  
   17    -689.3631050111      8.47e-06  
   18    -689.3631571646      4.13e-06  
   19    -689.3631659483      1.32e-06  
   20    -689.3631664530      4.24e-07  
   21    -689.3631664759      1.79e-07  
   22    -689.3631664802      6.37e-08  
   23    -689.3631664807      2.06e-08  
   24    -689.3631664808      8.29e-09  Convergence criterion met
 ---------------------------------------
 SCF time:   CPU 523.66s  wall 55.00s 
<S^2> =          0.904177176
 SCF   energy in the final basis set =     -689.3631664808
 Total energy in the final basis set =     -689.3631664808


 ------------------------------------------------------------------------------

   CCMAN2: suite of methods based on coupled cluster
           and equation of motion theories.

   Components:
   * libvmm-1.3-trunk
     by Evgeny Epifanovsky, Ilya Kaliman.
   * libtensor-2.5-trunk
     by Evgeny Epifanovsky, Michael Wormit, Dmitry Zuev, Sam Manzer, 
        Ilya Kaliman.
   * libcc-2.5-trunk
     by Evgeny Epifanovsky, Arik Landau, Tomasz Kus, Kirill Khistyaev, 
        Dmitry Zuev, Prashant Manohar, Xintian Feng, Anna Krylov, 
        Matthew Goldey, Alec White, Thomas Jagau, Kaushik Nanda, 
        Anastasia Gunina, Alexander Kunitsa, Joonho Lee.

   CCMAN original authors:
   Anna I. Krylov, C. David Sherrill, Steven R. Gwaltney,
   Edward F. C. Byrd (2000)
   Sergey V. Levchenko, Lyudmila V. Slipchenko, Tao Wang,
   Ana-Maria C. Cristian (2003)
   Piotr A. Pieniazek, C. Melania Oana, Evgeny Epifanovsky (2007)
   Prashant Manohar (2009)

 ------------------------------------------------------------------------------


 Allocating and initializing 100000MB of RAM...
 Calculation will run on 10 cores.


 Alpha MOs, Unrestricted
 -- Occupied --                  
-105.01  -11.51  -11.51  -11.51  -11.50  -11.50  -11.45  -10.74
  1 A1    1 B1    2 A1    3 A1    2 B1    4 A1    5 A1    6 A1                 
 -8.205  -8.200  -8.199  -1.421  -1.330  -1.303  -1.195  -1.073
  7 A1    3 B1    1 B2    8 A1    9 A1    4 B1   10 A1    5 B1                 
 -1.047  -0.930  -0.878  -0.870  -0.849  -0.783  -0.774  -0.735
 11 A1   12 A1    6 B1   13 A1    7 B1   14 A1    2 B2    8 B1                 
 -0.732  -0.657  -0.646  -0.626  -0.521
 15 A1    3 B2    1 A2    9 B1    4 B2                                         
 -- Virtual --                   
 -0.140  -0.092  -0.090  -0.075  -0.068  -0.067  -0.055  -0.050
  2 A2    5 B2   16 A1   10 B1    6 B2   17 A1   18 A1   11 B1                 
 -0.049  -0.047  -0.042  -0.031  -0.027  -0.026  -0.026  -0.023
  3 A2   19 A1    7 B2   20 A1   12 B1   13 B1   21 A1    8 B2                 
 -0.023  -0.022  -0.018  -0.017  -0.014  -0.009  -0.005  -0.003
  4 A2   22 A1    9 B2   23 A1   14 B1   24 A1   15 B1   10 B2                 
 -0.001   0.002   0.003   0.012   0.019   0.022   0.034   0.037
 25 A1   16 B1   26 A1   17 B1   27 A1   11 B2   28 A1    5 A2                 
  0.047   0.049   0.049   0.069   0.071   0.075   0.075   0.083
 18 B1   12 B2   29 A1   13 B2   30 A1   31 A1   19 B1    6 A2                 
  0.089   0.092   0.096   0.101   0.107   0.112   0.112   0.121
 32 A1   20 B1   14 B2   21 B1   15 B2   33 A1   22 B1   34 A1                 
  0.130   0.131   0.146   0.148   0.152   0.154   0.171   0.178
 35 A1   23 B1   36 A1   24 B1   16 B2   37 A1   38 A1   25 B1                 
  0.199   0.209   0.232   0.236   0.245   0.252   0.256   0.310
 26 B1   39 A1   27 B1   40 A1   41 A1   42 A1   28 B1   43 A1                 
  0.324   0.340   0.341   0.443   0.454   0.466   0.491   0.500
 29 B1   44 A1   30 B1   45 A1   31 B1   32 B1   46 A1   17 B2                 
  0.523   0.524   0.529   0.549   0.550   0.550   0.597   0.604
 47 A1   33 B1   18 B2    7 A2   34 B1   48 A1   19 B2    8 A2                 
  0.605   0.611   0.639   0.682   0.684   0.696   0.734   0.735
 35 B1   49 A1   20 B2   50 A1   21 B2   51 A1   52 A1   36 B1                 
  0.760   0.775   0.816   0.833   0.847   0.860   0.863   0.870
 37 B1   53 A1   38 B1   54 A1   55 A1   22 B2   39 B1   56 A1                 
  0.880   0.900   0.922   0.955   0.970   0.982   1.006   1.011
 40 B1   57 A1   41 B1    9 A2   58 A1   42 B1   10 A2   23 B2                 
  1.050   1.060   1.121   1.132   1.147   1.261   1.271   1.283
 59 A1   11 A2   60 A1   24 B2   12 A2   61 A1   62 A1   43 B1                 
  1.388   1.478   1.494   1.546   1.557   1.605   1.615   1.647
 25 B2   63 A1   44 B1   64 A1   45 B1   26 B2   13 A2   65 A1                 
  1.685   1.689   1.692   1.759   1.766   1.806   1.813   1.889
 27 B2   46 B1   66 A1   67 A1   47 B1   28 B2   14 A2   48 B1                 
  1.958   1.971   1.978   1.994   2.021   2.031   2.059   2.088
 68 A1   29 B2   15 A2   49 B1   50 B1   69 A1   30 B2   70 A1                 
  2.130   2.144   2.187   2.355   2.393   2.394   2.515   2.530
 51 B1   16 A2   71 A1   31 B2   17 A2   52 B1   32 B2   72 A1                 
  2.564   2.602   2.605   2.656   2.704   2.735   2.763   2.798
 53 B1   73 A1   54 B1   55 B1   74 A1   75 A1   76 A1   56 B1                 
  2.809   2.825   2.825   2.837   2.848   2.939   2.971   2.974
 77 A1   33 B2   78 A1   57 B1   79 A1   18 A2   80 A1   34 B2                 
  2.983   3.032   3.065   3.096   3.227   3.310   3.446   3.484
 58 B1   19 A2   35 B2   59 B1   36 B2   60 B1   81 A1   61 B1                 
  3.557   3.679   3.681   3.761   3.943   4.156   4.218   4.269
 82 A1   62 B1   83 A1   84 A1   85 A1   63 B1   86 A1   87 A1                 
  4.297   4.888   5.001   5.193   5.226   5.489   5.548   5.924
 64 B1   88 A1   65 B1   66 B1   89 A1   90 A1   67 B1   91 A1                 
 10.403  20.398  20.459  20.470  20.588  20.609  20.877  26.635
 92 A1   93 A1   68 B1   94 A1   95 A1   69 B1   96 A1   37 B2                 
 26.907  27.359  79.968  80.034  80.041  80.146  80.164  80.368
 70 B1   97 A1   98 A1   71 B1   99 A1  100 A1   72 B1  101 A1                 
219.270 321.809 321.873 321.875 321.969 321.982 322.1491431.379
102 A1  103 A1   73 B1  104 A1  105 A1   74 B1  106 A1  107 A1                 
*******1431.4371431.5191431.5291431.6698749.6188749.6668749.666
 75 B1  108 A1  109 A1   76 B1  110 A1  111 A1   77 B1  112 A1                 
*******8749.7418749.856
113 A1   78 B1  114 A1                                                         

 Beta MOs, Unrestricted
 -- Occupied --                  
-105.01  -11.52  -11.50  -11.50  -11.49  -11.49  -11.46  -10.74
  1 A1    2 A1    3 A1    1 B1    2 B1    4 A1    5 A1    6 A1                 
 -8.204  -8.201  -8.201  -1.404  -1.325  -1.247  -1.192  -1.052
  7 A1    1 B2    3 B1    8 A1    9 A1    4 B1   10 A1    5 B1                 
 -1.043  -0.926  -0.871  -0.866  -0.839  -0.785  -0.734  -0.729
 11 A1   12 A1    6 B1   13 A1    7 B1   14 A1    8 B1   15 A1                 
 -0.727  -0.633  -0.625  -0.536
  2 B2    3 B2    9 B1    4 B2                                                 
 -- Virtual --                   
 -0.264  -0.089  -0.083  -0.074  -0.067  -0.061  -0.055  -0.050
  1 A2   16 A1    5 B2   10 B1   17 A1    6 B2   18 A1   11 B1                 
 -0.050  -0.047  -0.047  -0.041  -0.031  -0.027  -0.026  -0.026
  2 A2   19 A1    3 A2    7 B2   20 A1   12 B1   13 B1   21 A1                 
 -0.023  -0.022  -0.018  -0.018  -0.017  -0.013  -0.009  -0.005
  8 B2   22 A1    4 A2    9 B2   23 A1   14 B1   24 A1   15 B1                 
 -0.003  -0.001   0.002   0.003   0.013   0.019   0.029   0.036
 10 B2   25 A1   16 B1   26 A1   17 B1   27 A1   11 B2   28 A1                 
  0.046   0.047   0.047   0.048   0.070   0.075   0.083   0.084
 12 B2   29 A1    5 A2   18 B1   30 A1   31 A1   19 B1   13 B2                 
  0.091   0.093   0.100   0.100   0.103   0.103   0.112   0.115
 32 A1   20 B1    6 A2   14 B2   15 B2   21 B1   33 A1   22 B1                 
  0.121   0.131   0.131   0.147   0.150   0.153   0.169   0.179
 34 A1   35 A1   23 B1   36 A1   24 B1   37 A1   38 A1   25 B1                 
  0.180   0.200   0.214   0.234   0.236   0.243   0.253   0.271
 16 B2   26 B1   39 A1   27 B1   40 A1   41 A1   42 A1   28 B1                 
  0.313   0.327   0.340   0.344   0.444   0.455   0.468   0.499
 43 A1   29 B1   44 A1   30 B1   45 A1   31 B1   32 B1   46 A1                 
  0.504   0.532   0.545   0.552   0.552   0.562   0.588   0.597
 17 B2   47 A1   33 B1   48 A1   18 B2   34 B1    7 A2   19 B2                 
  0.607   0.615   0.629   0.640   0.686   0.696   0.700   0.735
 35 B1   49 A1   20 B2    8 A2   50 A1   21 B2   51 A1   52 A1                 
  0.737   0.767   0.777   0.823   0.835   0.848   0.861   0.870
 36 B1   37 B1   53 A1   38 B1   54 A1   55 A1   22 B2   39 B1                 
  0.871   0.890   0.903   0.924   0.959   0.977   0.987   1.024
 56 A1   40 B1   57 A1   41 B1    9 A2   58 A1   42 B1   23 B2                 
  1.026   1.049   1.094   1.118   1.153   1.156   1.265   1.275
 10 A2   59 A1   11 A2   60 A1   24 B2   12 A2   61 A1   62 A1                 
  1.286   1.398   1.487   1.500   1.550   1.565   1.613   1.622
 43 B1   25 B2   63 A1   44 B1   64 A1   45 B1   26 B2   13 A2                 
  1.647   1.682   1.693   1.700   1.760   1.780   1.809   1.827
 65 A1   27 B2   66 A1   46 B1   67 A1   47 B1   28 B2   14 A2                 
  1.892   1.961   1.984   1.995   2.003   2.023   2.028   2.064
 48 B1   68 A1   15 A2   29 B2   49 B1   50 B1   69 A1   30 B2                 
  2.091   2.137   2.162   2.188   2.365   2.400   2.405   2.513
 70 A1   51 B1   16 A2   71 A1   31 B2   52 B1   17 A2   32 B2                 
  2.530   2.567   2.602   2.607   2.657   2.708   2.737   2.765
 72 A1   53 B1   73 A1   54 B1   55 B1   74 A1   75 A1   76 A1                 
  2.800   2.810   2.826   2.838   2.844   2.848   2.970   2.971
 56 B1   77 A1   78 A1   57 B1   33 B2   79 A1   18 A2   80 A1                 
  2.974   2.984   3.060   3.064   3.100   3.238   3.313   3.443

 Occupation and symmetry of molecular orbitals

 Point group: C2v (4 irreducible representations).

                           A1   A2   B1   B2    All 
 ----------------------------------------------------
 All molecular orbitals:
  - Alpha                  114  19   78   37    248 
  - Beta                   114  19   78   37    248 
 ----------------------------------------------------
 Alpha orbitals:
  - Frozen occupied        7    0    3    1     11  
  - Active occupied        8    1    6    3     18  
  - Active virtual         99   18   69   33    219 
  - Frozen virtual         0    0    0    0     0   
 ----------------------------------------------------
 Beta orbitals:
  - Frozen occupied        7    0    3    1     11  
  - Active occupied        8    0    6    3     17  
  - Active virtual         99   19   69   33    220 
  - Frozen virtual         0    0    0    0     0   
 ----------------------------------------------------

 Import integrals:   CPU 0.00 s  wall 0.00 s

 Import integrals:   CPU 2724.38 s  wall 2127.54 s

 MP2 amplitudes:   CPU 14.21 s  wall 2.01 s

Running a double precision version
           CCSD T amplitudes will be solved using DIIS.

           Start     Size      MaxIter   EConv     TConv     
           3         7         100       1.00e-06  1.00e-04  
 ------------------------------------------------------------------------------
           Energy (a.u.)   Ediff      Tdiff       Comment
 ------------------------------------------------------------------------------
          -690.27482308                           
     1    -690.29322755   1.84e-02   9.42e-01     
     2    -690.32182852   2.86e-02   1.18e-01     
     3    -690.32384812   2.02e-03   4.40e-02     
     4    -690.32748798   3.64e-03   1.52e-02     Switched to DIIS steps.
     5    -690.32954399   2.06e-03   1.55e-02     
     6    -690.32986932   3.25e-04   4.77e-03     
     7    -690.32994996   8.06e-05   2.34e-03     
     8    -690.32999157   4.16e-05   9.23e-04     
     9    -690.33000582   1.43e-05   4.72e-04     
    10    -690.33000852   2.69e-06   2.22e-04     
    11    -690.33000824   2.76e-07   1.46e-04     
    12    -690.33000826   1.92e-08   4.09e-05     
 ------------------------------------------------------------------------------
          -690.33000826                           CCSD T converged.

End of double precision
 SCF energy                 = -689.36316648
 MP2 energy                 = -690.27482308
 CCSD correlation energy     =   -0.96684178
 CCSD total energy           = -690.33000826

 CCSD  T1^2 = 0.0378  T2^2 = 0.3820  Leading amplitudes:

 Amplitude    Orbitals with energies
  0.0766       3 (B2) B                  ->    5 (B2) B                   
              -0.6334                         -0.0830                     
 -0.0547       4 (B2) B                  ->    5 (B2) B                   
              -0.5355                         -0.0830                     
 -0.0530       4 (B2) B                  ->    16 (B2) B                  
              -0.5355                          0.1800                     
 -0.0526       3 (B2) B                  ->    6 (B2) B                   
              -0.6334                         -0.0614                     

 Amplitude    Orbitals with energies
  0.0557       4 (B2) A      4 (B2) B    ->    5 (B2) A      5 (B2) B     
              -0.5210       -0.5355           -0.0920       -0.0830       
 -0.0557       4 (B2) A      4 (B2) B    ->    5 (B2) B      5 (B2) A     
              -0.5210       -0.5355           -0.0830       -0.0920       
 -0.0557       4 (B2) B      4 (B2) A    ->    5 (B2) A      5 (B2) B     
              -0.5355       -0.5210           -0.0920       -0.0830       
  0.0557       4 (B2) B      4 (B2) A    ->    5 (B2) B      5 (B2) A     
              -0.5355       -0.5210           -0.0830       -0.0920       

 Computing CCSD intemediates for later calculations in double precision
 Finished.

Running a double precision version
           CCSD Lambda amplitudes will be solved using DIIS.
           Start     Size      MaxIter   EConv     LConv     
           3         7         100       1.00e-06  1.00e-04  
 ------------------------------------------------------------------------------
            Enorm      Ldiff       Comment
 ------------------------------------------------------------------------------
     1     6.34e-02   4.96e-02     
     2     1.32e-02   3.16e-03     
     3     6.04e-03   2.26e-03     
     4     3.19e-03   9.85e-04     Switched to DIIS steps.
     5     1.22e-03   6.46e-04     
     6     5.86e-04   1.83e-04     
     7     2.51e-04   4.10e-05     
     8     1.26e-04   7.16e-06     
     9     6.04e-05   1.18e-05     
    10     3.14e-05   8.57e-06     
    11     1.33e-05   6.47e-06     
    12     6.19e-06   2.62e-06     
    13     2.61e-06   1.37e-06     
    14     1.11e-06   4.39e-07     
    15     5.82e-07   1.56e-07     
 ------------------------------------------------------------------------------
                                   CCSD Lambda converged.

 CCSD calculation:   CPU 4620.90 s  wall 561.28 s

        Solving for CVS-EOMEE-CCSD A1 transitions.

       EOMEE-CCSD-SINGLES right amplitudes will be solved using Davidson.
        Amplitudes will be solved using standard  algorithm.
     Hard-coded thresholds: 
     LinDepThresh=1.00e-15  NormThresh=1.00e-06  ReorthogonThresh=1.00e-02

      Roots     MaxVec    MaxIter   Precond   Conv      Shift    
      10        1000      200       1         1.00e-04  0.00e+00  
 ------------------------------------------------------------------------------
      Iter ConvRoots NVecs ResNorm Current eigenvalues (eV)
 ------------------------------------------------------------------------------
      0    0      10    3.38e-03   216.1752   217.0708   217.6737   217.6972   218.6530   218.6814   218.6931   219.0097   219.1145   219.1343   
      1    0      20    2.11e-01   215.7100   216.7397   217.5144   217.5399   218.3394   218.5015   218.5166   218.7754   219.0515   219.0723   
      2    0      30    3.90e-02   213.7190   214.5509   215.2411   216.1792   216.2756   216.4330   217.4966   217.6210   217.6327   217.9993   
      3    0      40    1.73e-02   211.4506   212.8127   214.9913   215.7415   215.9318   216.3849   217.1848   217.2972   217.3873   217.6908   
      4    1      50    1.19e-03   211.2998   212.7081   214.9836   215.7171   215.9147   216.3808*  217.1135   217.2682   217.3553   217.6325   
      5    5      59    1.69e-04   211.2911   212.7038   214.9831*  215.7151*  215.9137*  216.3804*  217.1055   217.2654*  217.3522   217.6184   
      6    8      64    5.89e-05   211.2908*  212.7035*  214.9831*  215.7150*  215.9137*  216.3804*  217.1041   217.2654*  217.3517*  217.6130   
      7    10     66    3.14e-05   211.2908*  212.7035*  214.9831*  215.7150*  215.9137*  216.3804*  217.1038*  217.2654*  217.3517*  217.6116*  

     Davidson procedure converged

        CVS-EOMEE-CCSD/MP2 right amplitudes will be solved using Davidson.
        Amplitudes will be solved using standard  algorithm.
     Hard-coded thresholds: 
     LinDepThresh=1.00e-15  NormThresh=1.00e-06  ReorthogonThresh=1.00e-02

      Roots     MaxVec    MaxIter   Precond   Conv      Shift    
      10        1000      200       1         1.00e-04  0.00e+00  
 ------------------------------------------------------------------------------
      Iter ConvRoots NVecs ResNorm Current eigenvalues (eV)
 ------------------------------------------------------------------------------
      0    0      10    1.77e+00   211.2908   212.7035   214.9831   215.7150   215.9137   216.3804   217.1038   217.2654   217.3517   217.6116   
      1    0      20    1.21e+01   209.6174   210.8733   212.3751   213.6368   213.7959   213.9287   214.9085   215.0253   215.0981   215.3220   
      2    0      30    6.70e-02   203.2829   203.6259   204.0895   204.4273   206.0812   206.1016   207.2144   207.2464   207.2920   207.3891   
      3    0      40    1.42e-02   202.9396   203.1948   203.7155   204.0121   205.7584   205.7916   206.8886   206.9231   206.9732   207.0764   
      4    0      50    2.66e-03   202.8852   203.1249   203.6495   203.9429   205.6938   205.7366   206.8167   206.8618   206.9129   207.0217   
      5    0      60    4.28e-03   202.8744   203.1045   203.6369   203.9188   205.6492   205.7002   206.7534   206.8088   206.8611   206.9746   
      6    0      70    8.91e-04   202.8723   203.0999   203.6348   203.9150   205.6204   205.6750   206.7136   206.7700   206.8252   206.9370   
      7    1      80    1.20e-03   202.8702*  203.0995   203.6325   203.9135   205.6030   205.6603   206.6904   206.7502   206.8069   206.9191   
      8    4      89    3.65e-04   202.8701*  203.0985*  203.6313*  203.9114*  205.5928   205.6524   206.6737   206.7365   206.7955   206.9091   
      9    4      95    4.19e-04   202.8701*  203.0985*  203.6312*  203.9112*  205.5847   205.6460   206.6604   206.7244   206.7872   206.9011   
      10   4      101   1.19e-04   202.8700*  203.0985*  203.6312*  203.9112*  205.5816   205.6437   206.6543   206.7195   206.7836   206.8971   
      11   6      107   1.28e-04   202.8700*  203.0985*  203.6311*  203.9112*  205.5805*  205.6429*  206.6514   206.7171   206.7819   206.8953   
      12   10     111   5.72e-05   202.8700*  203.0985*  203.6311*  203.9112*  205.5805*  205.6429*  206.6492*  206.7148*  206.7799*  206.8931*  

     Davidson procedure converged

 EOMEE transition 1/A1
 Total energy = -682.87467172 a.u.  Excitation energy = 202.8700 eV.
 R0^2 = 0.0000  R1^2 = 0.8964  R2_CCVV^2 = 0.0036  R2_COVV^2 = 0.0500  Res^2 = 7.11e-05
 Conv-d = yes

 Amplitude    Transitions between orbitals
 -0.3906       7 (A1) B                  ->    29 (A1) B                  
  0.2883       7 (A1) A                  ->    29 (A1) A                  
  0.2779       7 (A1) B                  ->    38 (A1) B                  
 -0.2419       7 (A1) A                  ->    38 (A1) A                  
  0.2384       7 (A1) B                  ->    30 (A1) B                  
  0.2217       7 (A1) B                  ->    27 (A1) B                  
  0.2023       1 (B2) A                  ->    5 (B2) A                   
  0.2014       7 (A1) A                  ->    30 (A1) A                  
  0.1860       7 (A1) B                  ->    25 (A1) B                  
 -0.1577       7 (A1) B                  ->    23 (A1) B                  
 -0.1448       7 (A1) A                  ->    27 (A1) A                  
 -0.1374       7 (A1) B                  ->    35 (A1) B                  
  0.1302       7 (A1) A                  ->    25 (A1) A                  
 -0.1245       7 (A1) B                  ->    20 (A1) B                  
  0.1108       7 (A1) A                  ->    23 (A1) A                  
 -0.1090       7 (A1) B                  ->    32 (A1) B                  
 -0.1017       7 (A1) B                  ->    37 (A1) B                  

              Summary of significant orbitals:

               Number  Type             Irrep      Energy
               9       Occ  Alpha       7 (A1)     -8.2046
               11      Occ  Alpha       1 (B2)     -8.1995
               9       Occ  Beta        7 (A1)     -8.2038
               49      Vir  Alpha      23 (A1)     -0.0170
               54      Vir  Alpha      25 (A1)     -0.0008
               58      Vir  Alpha      27 (A1)      0.0192
               64      Vir  Alpha      29 (A1)      0.0492
               66      Vir  Alpha      30 (A1)      0.0713
               84      Vir  Alpha      38 (A1)      0.1706
               31      Vir  Alpha       5 (B2)     -0.0920
               41      Vir  Beta       20 (A1)     -0.0313
               49      Vir  Beta       23 (A1)     -0.0170
               54      Vir  Beta       25 (A1)     -0.0008
               58      Vir  Beta       27 (A1)      0.0190
               62      Vir  Beta       29 (A1)      0.0466
               65      Vir  Beta       30 (A1)      0.0703
               69      Vir  Beta       32 (A1)      0.0907
               78      Vir  Beta       35 (A1)      0.1310
               82      Vir  Beta       37 (A1)      0.1534
               83      Vir  Beta       38 (A1)      0.1690


 EOMEE transition 2/A1
 Total energy = -682.86627677 a.u.  Excitation energy = 203.0985 eV.
 R0^2 = 0.0000  R1^2 = 0.8582  R2_CCVV^2 = 0.0037  R2_COVV^2 = 0.0691  Res^2 = 1.76e-05
 Conv-d = yes

 Amplitude    Transitions between orbitals
  0.8315       1 (B2) A                  ->    5 (B2) A                   
  0.1905       1 (B2) A                  ->    13 (B2) A                  
 -0.1395       7 (A1) A                  ->    29 (A1) A                  
 -0.1353       1 (B2) A                  ->    16 (B2) A                  
  0.1181       1 (B2) A                  ->    15 (B2) A                  
  0.1125       7 (A1) A                  ->    38 (A1) A                  

              Summary of significant orbitals:

               Number  Type             Irrep      Energy
               9       Occ  Alpha       7 (A1)     -8.2046
               11      Occ  Alpha       1 (B2)     -8.1995
               64      Vir  Alpha      29 (A1)      0.0492
               84      Vir  Alpha      38 (A1)      0.1706
               31      Vir  Alpha       5 (B2)     -0.0920
               65      Vir  Alpha      13 (B2)      0.0690
               74      Vir  Alpha      15 (B2)      0.1072
               82      Vir  Alpha      16 (B2)      0.1522


 EOMEE transition 3/A1
 Total energy = -682.84670160 a.u.  Excitation energy = 203.6311 eV.
 R0^2 = 0.0000  R1^2 = 0.8785  R2_CCVV^2 = 0.0038  R2_COVV^2 = 0.0589  Res^2 = 1.93e-05
 Conv-d = yes

 Amplitude    Transitions between orbitals
 -0.3407       7 (A1) A                  ->    29 (A1) A                  
  0.3138       1 (B2) B                  ->    5 (B2) B                   
 -0.2961       7 (A1) B                  ->    29 (A1) B                  
  0.2481       7 (A1) A                  ->    38 (A1) A                  
 -0.2323       7 (A1) A                  ->    30 (A1) A                  
  0.1823       7 (A1) B                  ->    38 (A1) B                  
  0.1773       7 (A1) B                  ->    30 (A1) B                  
  0.1732       7 (A1) A                  ->    27 (A1) A                  
 -0.1730       1 (B2) B                  ->    6 (B2) B                   
  0.1705       7 (A1) B                  ->    27 (A1) B                  
 -0.1600       1 (B2) A                  ->    5 (B2) A                   
 -0.1598       7 (A1) A                  ->    25 (A1) A                  
  0.1480       7 (A1) B                  ->    25 (A1) B                  
 -0.1365       7 (A1) A                  ->    23 (A1) A                  
 -0.1259       7 (A1) B                  ->    23 (A1) B                  
 -0.1126       7 (A1) A                  ->    20 (A1) A                  
 -0.1004       7 (A1) B                  ->    20 (A1) B                  

              Summary of significant orbitals:

               Number  Type             Irrep      Energy
               9       Occ  Alpha       7 (A1)     -8.2046
               11      Occ  Alpha       1 (B2)     -8.1995
               9       Occ  Beta        7 (A1)     -8.2038
               10      Occ  Beta        1 (B2)     -8.2014
               41      Vir  Alpha      20 (A1)     -0.0315
               49      Vir  Alpha      23 (A1)     -0.0170
               54      Vir  Alpha      25 (A1)     -0.0008
               58      Vir  Alpha      27 (A1)      0.0192
               64      Vir  Alpha      29 (A1)      0.0492
               66      Vir  Alpha      30 (A1)      0.0713
               84      Vir  Alpha      38 (A1)      0.1706
               31      Vir  Alpha       5 (B2)     -0.0920
               41      Vir  Beta       20 (A1)     -0.0313
               49      Vir  Beta       23 (A1)     -0.0170
               54      Vir  Beta       25 (A1)     -0.0008
               58      Vir  Beta       27 (A1)      0.0190
               62      Vir  Beta       29 (A1)      0.0466
               65      Vir  Beta       30 (A1)      0.0703
               83      Vir  Beta       38 (A1)      0.1690
               31      Vir  Beta        5 (B2)     -0.0830
               34      Vir  Beta        6 (B2)     -0.0614


 EOMEE transition 4/A1
 Total energy = -682.83640996 a.u.  Excitation energy = 203.9112 eV.
 R0^2 = 0.0000  R1^2 = 0.8471  R2_CCVV^2 = 0.0037  R2_COVV^2 = 0.0746  Res^2 = 2.44e-05
 Conv-d = yes

 Amplitude    Transitions between orbitals
 -0.7365       1 (B2) B                  ->    5 (B2) B                   
  0.3729       1 (B2) B                  ->    6 (B2) B                   
  0.1683       1 (B2) B                  ->    13 (B2) B                  
  0.1471       1 (B2) B                  ->    7 (B2) B                   
 -0.1283       1 (B2) B                  ->    16 (B2) B                  
 -0.1126       7 (A1) A                  ->    29 (A1) A                  

              Summary of significant orbitals:

               Number  Type             Irrep      Energy
               9       Occ  Alpha       7 (A1)     -8.2046
               10      Occ  Beta        1 (B2)     -8.2014
               64      Vir  Alpha      29 (A1)      0.0492
               31      Vir  Beta        5 (B2)     -0.0830
               34      Vir  Beta        6 (B2)     -0.0614
               40      Vir  Beta        7 (B2)     -0.0414
               68      Vir  Beta       13 (B2)      0.0841
               85      Vir  Beta       16 (B2)      0.1800


 EOMEE transition 5/A1
 Total energy = -682.77506405 a.u.  Excitation energy = 205.5805 eV.
 R0^2 = 0.0000  R1^2 = 0.8707  R2_CCVV^2 = 0.0037  R2_COVV^2 = 0.0628  Res^2 = 8.20e-05
 Conv-d = yes

 Amplitude    Transitions between orbitals
  0.3946       7 (A1) A                  ->    16 (A1) A                  
 -0.3618       7 (A1) A                  ->    17 (A1) A                  
  0.3171       7 (A1) B                  ->    16 (A1) B                  
 -0.3031       7 (A1) B                  ->    17 (A1) B                  
 -0.2517       7 (A1) A                  ->    22 (A1) A                  
  0.2164       7 (A1) B                  ->    22 (A1) B                  
 -0.1621       7 (A1) A                  ->    30 (A1) A                  
  0.1532       7 (A1) A                  ->    20 (A1) A                  
 -0.1447       7 (A1) B                  ->    30 (A1) B                  
  0.1409       7 (A1) A                  ->    32 (A1) A                  
  0.1279       7 (A1) A                  ->    18 (A1) A                  
  0.1243       7 (A1) A                  ->    19 (A1) A                  
 -0.1235       7 (A1) B                  ->    20 (A1) B                  
 -0.1182       7 (A1) B                  ->    32 (A1) B                  
  0.1095       7 (A1) B                  ->    18 (A1) B                  
  0.1031       7 (A1) B                  ->    19 (A1) B                  

              Summary of significant orbitals:

               Number  Type             Irrep      Energy
               9       Occ  Alpha       7 (A1)     -8.2046
               9       Occ  Beta        7 (A1)     -8.2038
               32      Vir  Alpha      16 (A1)     -0.0895
               35      Vir  Alpha      17 (A1)     -0.0667
               36      Vir  Alpha      18 (A1)     -0.0553
               39      Vir  Alpha      19 (A1)     -0.0474
               41      Vir  Alpha      20 (A1)     -0.0315
               47      Vir  Alpha      22 (A1)     -0.0222
               66      Vir  Alpha      30 (A1)      0.0713
               70      Vir  Alpha      32 (A1)      0.0895
               30      Vir  Beta       16 (A1)     -0.0888
               33      Vir  Beta       17 (A1)     -0.0666
               35      Vir  Beta       18 (A1)     -0.0547
               38      Vir  Beta       19 (A1)     -0.0473
               41      Vir  Beta       20 (A1)     -0.0313
               46      Vir  Beta       22 (A1)     -0.0221
               65      Vir  Beta       30 (A1)      0.0703
               69      Vir  Beta       32 (A1)      0.0907


 EOMEE transition 6/A1
 Total energy = -682.77277241 a.u.  Excitation energy = 205.6428 eV.
 R0^2 = 0.0000  R1^2 = 0.8694  R2_CCVV^2 = 0.0037  R2_COVV^2 = 0.0634  Res^2 = 6.03e-05
 Conv-d = yes

 Amplitude    Transitions between orbitals
 -0.3957       7 (A1) B                  ->    16 (A1) B                  
  0.3666       7 (A1) B                  ->    17 (A1) B                  
  0.3369       7 (A1) A                  ->    16 (A1) A                  
 -0.2990       7 (A1) A                  ->    17 (A1) A                  
 -0.2604       7 (A1) B                  ->    22 (A1) B                  
 -0.2070       7 (A1) A                  ->    22 (A1) A                  
  0.1685       7 (A1) B                  ->    30 (A1) B                  
  0.1497       7 (A1) B                  ->    20 (A1) B                  
 -0.1379       7 (A1) B                  ->    18 (A1) B                  
  0.1371       7 (A1) B                  ->    32 (A1) B                  
 -0.1280       7 (A1) A                  ->    30 (A1) A                  
  0.1273       7 (A1) A                  ->    20 (A1) A                  
 -0.1136       7 (A1) B                  ->    19 (A1) B                  
  0.1118       7 (A1) A                  ->    32 (A1) A                  
  0.1109       7 (A1) A                  ->    18 (A1) A                  
  0.1026       7 (A1) B                  ->    41 (A1) B                  

              Summary of significant orbitals:

               Number  Type             Irrep      Energy
               9       Occ  Alpha       7 (A1)     -8.2046
               9       Occ  Beta        7 (A1)     -8.2038
               32      Vir  Alpha      16 (A1)     -0.0895
               35      Vir  Alpha      17 (A1)     -0.0667
               36      Vir  Alpha      18 (A1)     -0.0553
               41      Vir  Alpha      20 (A1)     -0.0315
               47      Vir  Alpha      22 (A1)     -0.0222
               66      Vir  Alpha      30 (A1)      0.0713
               70      Vir  Alpha      32 (A1)      0.0895
               30      Vir  Beta       16 (A1)     -0.0888
               33      Vir  Beta       17 (A1)     -0.0666
               35      Vir  Beta       18 (A1)     -0.0547
               38      Vir  Beta       19 (A1)     -0.0473
               41      Vir  Beta       20 (A1)     -0.0313
               46      Vir  Beta       22 (A1)     -0.0221
               65      Vir  Beta       30 (A1)      0.0703
               69      Vir  Beta       32 (A1)      0.0907
               90      Vir  Beta       41 (A1)      0.2428


 EOMEE transition 7/A1
 Total energy = -682.73578883 a.u.  Excitation energy = 206.6492 eV.
 R0^2 = 0.0000  R1^2 = 0.8649  R2_CCVV^2 = 0.0037  R2_COVV^2 = 0.0657  Res^2 = 7.45e-05
 Conv-d = yes

 Amplitude    Transitions between orbitals
  0.5368       3 (B1) A                  ->    10 (B1) A                  
  0.3620       3 (B1) A                  ->    11 (B1) A                  
 -0.3124       3 (B1) B                  ->    10 (B1) B                  
 -0.2228       3 (B1) B                  ->    11 (B1) B                  
  0.2034       3 (B1) A                  ->    15 (B1) A                  
 -0.2018       3 (B1) A                  ->    13 (B1) A                  
  0.1698       3 (B1) A                  ->    16 (B1) A                  
  0.1605       3 (B1) A                  ->    20 (B1) A                  
  0.1512       3 (B1) A                  ->    18 (B1) A                  
 -0.1237       3 (B1) B                  ->    15 (B1) B                  
  0.1101       3 (B1) B                  ->    13 (B1) B                  
 -0.1056       3 (B1) B                  ->    16 (B1) B                  
 -0.1047       3 (B1) B                  ->    20 (B1) B                  

              Summary of significant orbitals:

               Number  Type             Irrep      Energy
               10      Occ  Alpha       3 (B1)     -8.2005
               11      Occ  Beta        3 (B1)     -8.2007
               33      Vir  Alpha      10 (B1)     -0.0745
               37      Vir  Alpha      11 (B1)     -0.0500
               43      Vir  Alpha      13 (B1)     -0.0262
               52      Vir  Alpha      15 (B1)     -0.0051
               55      Vir  Alpha      16 (B1)      0.0019
               62      Vir  Alpha      18 (B1)      0.0475
               71      Vir  Alpha      20 (B1)      0.0920
               32      Vir  Beta       10 (B1)     -0.0739
               36      Vir  Beta       11 (B1)     -0.0497
               43      Vir  Beta       13 (B1)     -0.0257
               52      Vir  Beta       15 (B1)     -0.0050
               55      Vir  Beta       16 (B1)      0.0024
               70      Vir  Beta       20 (B1)      0.0929


 EOMEE transition 8/A1
 Total energy = -682.73337895 a.u.  Excitation energy = 206.7148 eV.
 R0^2 = 0.0000  R1^2 = 0.8638  R2_CCVV^2 = 0.0037  R2_COVV^2 = 0.0663  Res^2 = 7.90e-05
 Conv-d = yes

 Amplitude    Transitions between orbitals
 -0.5051       3 (B1) B                  ->    10 (B1) B                  
 -0.3343       3 (B1) B                  ->    11 (B1) B                  
 -0.3240       3 (B1) A                  ->    10 (B1) A                  
  0.2235       1 (B2) A                  ->    6 (B2) A                   
 -0.2011       3 (B1) A                  ->    11 (B1) A                  
 -0.1834       3 (B1) B                  ->    15 (B1) B                  
  0.1727       3 (B1) B                  ->    13 (B1) B                  
 -0.1620       3 (B1) B                  ->    16 (B1) B                  
 -0.1482       3 (B1) B                  ->    20 (B1) B                  
 -0.1477       1 (B2) A                  ->    7 (B2) A                   
 -0.1394       3 (B1) B                  ->    18 (B1) B                  
  0.1159       3 (B1) A                  ->    13 (B1) A                  
 -0.1118       3 (B1) A                  ->    15 (B1) A                  
  0.1085       1 (B2) A                  ->    11 (B2) A                  
 -0.1014       1 (B2) A                  ->    12 (B2) A                  

              Summary of significant orbitals:

               Number  Type             Irrep      Energy
               10      Occ  Alpha       3 (B1)     -8.2005
               11      Occ  Alpha       1 (B2)     -8.1995
               11      Occ  Beta        3 (B1)     -8.2007
               33      Vir  Alpha      10 (B1)     -0.0745
               37      Vir  Alpha      11 (B1)     -0.0500
               43      Vir  Alpha      13 (B1)     -0.0262
               52      Vir  Alpha      15 (B1)     -0.0051
               34      Vir  Alpha       6 (B2)     -0.0684
               40      Vir  Alpha       7 (B2)     -0.0424
               59      Vir  Alpha      11 (B2)      0.0217
               63      Vir  Alpha      12 (B2)      0.0486
               32      Vir  Beta       10 (B1)     -0.0739
               36      Vir  Beta       11 (B1)     -0.0497
               43      Vir  Beta       13 (B1)     -0.0257
               52      Vir  Beta       15 (B1)     -0.0050
               55      Vir  Beta       16 (B1)      0.0024
               64      Vir  Beta       18 (B1)      0.0478
               70      Vir  Beta       20 (B1)      0.0929


 EOMEE transition 9/A1
 Total energy = -682.73098712 a.u.  Excitation energy = 206.7799 eV.
 R0^2 = 0.0000  R1^2 = 0.8660  R2_CCVV^2 = 0.0037  R2_COVV^2 = 0.0652  Res^2 = 6.61e-05
 Conv-d = yes

 Amplitude    Transitions between orbitals
 -0.5609       1 (B2) A                  ->    6 (B2) A                   
  0.3563       1 (B2) A                  ->    7 (B2) A                   
 -0.2653       1 (B2) A                  ->    11 (B2) A                  
  0.2382       1 (B2) A                  ->    12 (B2) A                  
 -0.2125       1 (B2) B                  ->    7 (B2) B                   
 -0.1902       3 (B1) B                  ->    10 (B1) B                  
 -0.1885       1 (B2) B                  ->    6 (B2) B                   
 -0.1797       1 (B2) B                  ->    5 (B2) B                   
 -0.1457       1 (B2) B                  ->    12 (B2) B                  
  0.1448       1 (B2) A                  ->    14 (B2) A                  
 -0.1338       1 (B2) B                  ->    11 (B2) B                  
  0.1173       1 (B2) A                  ->    8 (B2) A                   
 -0.1156       3 (B1) B                  ->    11 (B1) B                  

              Summary of significant orbitals:

               Number  Type             Irrep      Energy
               11      Occ  Alpha       1 (B2)     -8.1995
               11      Occ  Beta        3 (B1)     -8.2007
               10      Occ  Beta        1 (B2)     -8.2014
               34      Vir  Alpha       6 (B2)     -0.0684
               40      Vir  Alpha       7 (B2)     -0.0424
               45      Vir  Alpha       8 (B2)     -0.0231
               59      Vir  Alpha      11 (B2)      0.0217
               63      Vir  Alpha      12 (B2)      0.0486
               72      Vir  Alpha      14 (B2)      0.0958
               32      Vir  Beta       10 (B1)     -0.0739
               36      Vir  Beta       11 (B1)     -0.0497
               31      Vir  Beta        5 (B2)     -0.0830
               34      Vir  Beta        6 (B2)     -0.0614
               40      Vir  Beta        7 (B2)     -0.0414
               59      Vir  Beta       11 (B2)      0.0294
               61      Vir  Beta       12 (B2)      0.0464


 EOMEE transition 10/A1
 Total energy = -682.72682718 a.u.  Excitation energy = 206.8931 eV.
 R0^2 = 0.0000  R1^2 = 0.8643  R2_CCVV^2 = 0.0037  R2_COVV^2 = 0.0660  Res^2 = 7.75e-05
 Conv-d = yes

 Amplitude    Transitions between orbitals
 -0.4172       1 (B2) B                  ->    7 (B2) B                   
 -0.4102       1 (B2) B                  ->    6 (B2) B                   
 -0.3367       1 (B2) B                  ->    5 (B2) B                   
 -0.2712       1 (B2) B                  ->    12 (B2) B                  
 -0.2678       1 (B2) B                  ->    11 (B2) B                  
  0.2431       1 (B2) A                  ->    6 (B2) A                   
 -0.1562       7 (A1) A                  ->    19 (A1) A                  
 -0.1390       1 (B2) A                  ->    7 (B2) A                   
  0.1207       1 (B2) B                  ->    15 (B2) B                  
  0.1190       7 (A1) A                  ->    16 (A1) A                  
  0.1084       1 (B2) A                  ->    11 (B2) A                  
 -0.1075       1 (B2) B                  ->    8 (B2) B                   
  0.1047       3 (B1) A                  ->    10 (B1) A                  

              Summary of significant orbitals:

               Number  Type             Irrep      Energy
               9       Occ  Alpha       7 (A1)     -8.2046
               10      Occ  Alpha       3 (B1)     -8.2005
               11      Occ  Alpha       1 (B2)     -8.1995
               10      Occ  Beta        1 (B2)     -8.2014
               32      Vir  Alpha      16 (A1)     -0.0895
               39      Vir  Alpha      19 (A1)     -0.0474
               33      Vir  Alpha      10 (B1)     -0.0745
               34      Vir  Alpha       6 (B2)     -0.0684
               40      Vir  Alpha       7 (B2)     -0.0424
               59      Vir  Alpha      11 (B2)      0.0217
               31      Vir  Beta        5 (B2)     -0.0830
               34      Vir  Beta        6 (B2)     -0.0614
               40      Vir  Beta        7 (B2)     -0.0414
               45      Vir  Beta        8 (B2)     -0.0229
               59      Vir  Beta       11 (B2)      0.0294
               61      Vir  Beta       12 (B2)      0.0464
               73      Vir  Beta       15 (B2)      0.1031


      CVS-EOM-CCSD/MP2 left amplitudes will be solved using Davidson.
        Amplitudes will be solved using MOM  algorithm.
     Hard-coded thresholds: 
     LinDepThresh=1.00e-15  NormThresh=1.00e-06  ReorthogonThresh=1.00e-02

      Roots     MaxVec    MaxIter   Precond   Conv      Shift    
      10        1000      200       1         1.00e-04  0.00e+00  
 ------------------------------------------------------------------------------
      Iter ConvRoots NVecs ResNorm Current eigenvalues (eV)
 ------------------------------------------------------------------------------
      0    0      10    1.67e-02   202.8700   203.0985   203.6311   203.9112   205.5805   205.6429   206.6492   206.7148   206.7799   206.8931   
      1    0      20    8.45e+00   202.8697   203.0985   203.6311   203.9112   205.5797   205.6422   206.6487   206.7142   206.7795   206.8926   
      2    0      30    1.71e-02   202.8696   203.0984   203.6311   203.9110   205.5801   205.6425   206.6489   206.7144   206.7798   206.8929   
      3    0      40    9.19e-04   202.8694   203.0982   203.6311   203.9108   205.5799   205.6423   206.6487   206.7142   206.7796   206.8927   
      4    3      50    1.96e-04   202.8694   203.0981*  203.6310   203.9107*  205.5798   205.6423   206.6486   206.7141   206.7796*  206.8927   
      5    10     57    3.63e-05   202.8693*  203.0981*  203.6310*  203.9106*  205.5798*  205.6423*  206.6485*  206.7139*  206.7796*  206.8926*  

     Davidson procedure converged

        Solving for CVS-EOMEE-CCSD A2 transitions.

       EOMEE-CCSD-SINGLES right amplitudes will be solved using Davidson.
        Amplitudes will be solved using standard  algorithm.
     Hard-coded thresholds: 
     LinDepThresh=1.00e-15  NormThresh=1.00e-06  ReorthogonThresh=1.00e-02

      Roots     MaxVec    MaxIter   Precond   Conv      Shift    
      10        1000      200       1         1.00e-04  0.00e+00  
 ------------------------------------------------------------------------------
      Iter ConvRoots NVecs ResNorm Current eigenvalues (eV)
 ------------------------------------------------------------------------------
      0    0      10    2.90e-03   212.6450   216.1872   216.5068   217.0509   218.3874   218.4637   218.7030   218.9923   219.5781   219.6369   
      1    0      20    7.53e-02   212.5542   215.6439   216.4689   216.6927   218.1674   218.2457   218.2869   218.6190   219.4407   219.4976   
      2    0      30    1.70e-02   212.4812   215.0289   216.3777   216.4426   217.4003   217.4749   217.5262   217.6129   218.5222   218.9525   
      3    3      40    3.64e-03   212.4807*  215.0137   216.3721*  216.4395*  217.2646   217.3548   217.3981   217.4228   218.2486   218.8627   
      4    4      47    3.76e-03   212.4807*  215.0125*  216.3721*  216.4395*  217.2509   217.3419   217.3847   217.4048   218.2104   218.8326   
      5    7      53    2.05e-04   212.4807*  215.0125*  216.3721*  216.4395*  217.2483*  217.3389   217.3825*  217.4024   218.2035*  218.8003   
      6    9      56    9.22e-05   212.4807*  215.0125*  216.3721*  216.4395*  217.2481*  217.3385*  217.3824*  217.4022*  218.2035*  218.7919   
      7    9      57    3.50e-05   212.4807*  215.0125*  216.3721*  216.4395*  217.2481*  217.3385*  217.3824*  217.4022*  218.2035*  218.7912   
      8    10     58    2.07e-05   212.4807*  215.0125*  216.3721*  216.4395*  217.2481*  217.3385*  217.3824*  217.4022*  218.2035*  218.7910*  

     Davidson procedure converged

        CVS-EOMEE-CCSD/MP2 right amplitudes will be solved using Davidson.
        Amplitudes will be solved using standard  algorithm.
     Hard-coded thresholds: 
     LinDepThresh=1.00e-15  NormThresh=1.00e-06  ReorthogonThresh=1.00e-02

      Roots     MaxVec    MaxIter   Precond   Conv      Shift    
      10        1000      200       1         1.00e-04  0.00e+00  
 ------------------------------------------------------------------------------
      Iter ConvRoots NVecs ResNorm Current eigenvalues (eV)
 ------------------------------------------------------------------------------
      0    0      10    1.86e+00   212.4807   215.0125   216.3721   216.4395   217.2481   217.3385   217.3824   217.4022   218.2035   218.7910   
      1    0      20    1.04e+01   209.5730   212.3940   213.6333   213.6511   215.0098   215.0789   215.1221   215.1534   215.4795   216.4386   
      2    0      30    5.24e-02   199.5335   203.6427   204.0916   204.3782   205.8453   207.0286   207.2362   207.2836   207.3521   208.3120   
      3    0      40    1.18e-02   199.1377   203.2196   203.6441   203.9716   205.3699   206.7185   206.9185   206.9766   207.0420   207.9744   
      4    0      50    2.17e-03   199.1054   203.1518   203.6003   203.9038   205.2419   206.6871   206.8575   206.9244   206.9865   207.9257   
      5    0      60    3.93e-03   199.0964   203.1318   203.5784   203.8803   205.1544   206.6655   206.8031   206.8787   206.9407   207.8790   
      6    1      70    7.15e-04   199.0937*  203.1274   203.5712   203.8772   205.1110   206.6538   206.7654   206.8443   206.9078   207.8336   
      7    3      79    9.59e-04   199.0937*  203.1271*  203.5719*  203.8761   205.1078   206.6525   206.7453   206.8280   206.8915   207.8119   
      8    6      86    3.12e-04   199.0938*  203.1271*  203.5719*  203.8745*  205.1040*  206.6512*  206.7308   206.8187   206.8821   207.7923   
      9    6      90    3.41e-04   199.0938*  203.1271*  203.5719*  203.8744*  205.1040*  206.6512*  206.7185   206.8117   206.8753   207.7752   
      10   6      94    1.21e-04   199.0938*  203.1271*  203.5719*  203.8744*  205.1040*  206.6512*  206.7132   206.8085   206.8717   207.7677   
      11   6      98    1.52e-04   199.0938*  203.1271*  203.5719*  203.8744*  205.1040*  206.6512*  206.7109   206.8075   206.8705   207.7630   
      12   9      102   7.29e-05   199.0938*  203.1270*  203.5719*  203.8744*  205.1040*  206.6512*  206.7090*  206.8058*  206.8685*  207.7583   
      13   9      103   6.28e-05   199.0938*  203.1270*  203.5719*  203.8744*  205.1040*  206.6512*  206.7090*  206.8058*  206.8685*  207.7559   
      14   10     104   5.41e-05   199.0938*  203.1270*  203.5719*  203.8744*  205.1040*  206.6512*  206.7090*  206.8058*  206.8685*  207.7556*  

     Davidson procedure converged

 EOMEE transition 1/A2
 Total energy = -683.01344607 a.u.  Excitation energy = 199.0938 eV.
 R0^2 = 0.0000  R1^2 = 0.8370  R2_CCVV^2 = 0.0036  R2_COVV^2 = 0.0797  Res^2 = 2.91e-05
 Conv-d = yes

 Amplitude    Transitions between orbitals
  0.9050       7 (A1) B                  ->    1 (A2) B                   
  0.0958       7 (A1) B                  ->    2 (A2) B                   
 -0.0556       7 (A1) B                  ->    5 (A2) B                   
 -0.0413       7 (A1) B                  ->    4 (A2) B                   

              Summary of significant orbitals:

               Number  Type             Irrep      Energy
               9       Occ  Beta        7 (A1)     -8.2038
               29      Vir  Beta        1 (A2)     -0.2636
               37      Vir  Beta        2 (A2)     -0.0496
               47      Vir  Beta        4 (A2)     -0.0185
               63      Vir  Beta        5 (A2)      0.0472


 EOMEE transition 2/A2
 Total energy = -682.86522666 a.u.  Excitation energy = 203.1270 eV.
 R0^2 = 0.0000  R1^2 = 0.8551  R2_CCVV^2 = 0.0037  R2_COVV^2 = 0.0706  Res^2 = 8.71e-05
 Conv-d = yes

 Amplitude    Transitions between orbitals
 -0.8684       3 (B1) A                  ->    5 (B2) A                   
 -0.2001       3 (B1) A                  ->    13 (B2) A                  
  0.1416       3 (B1) A                  ->    16 (B2) A                  
 -0.1216       3 (B1) A                  ->    15 (B2) A                  

              Summary of significant orbitals:

               Number  Type             Irrep      Energy
               10      Occ  Alpha       3 (B1)     -8.2005
               31      Vir  Alpha       5 (B2)     -0.0920
               65      Vir  Alpha      13 (B2)      0.0690
               74      Vir  Alpha      15 (B2)      0.1072
               82      Vir  Alpha      16 (B2)      0.1522


 EOMEE transition 3/A2
 Total energy = -682.84887851 a.u.  Excitation energy = 203.5719 eV.
 R0^2 = 0.0000  R1^2 = 0.8389  R2_CCVV^2 = 0.0036  R2_COVV^2 = 0.0788  Res^2 = 9.78e-05
 Conv-d = yes

 Amplitude    Transitions between orbitals
  0.9125       7 (A1) A                  ->    2 (A2) A                   
  0.0551       7 (A1) A                  ->    6 (A2) A                   
  0.0307       7 (A1) A                  ->    4 (A2) A                   
 -0.0293       7 (A1) A                  ->    8 (A2) A                   

              Summary of significant orbitals:

               Number  Type             Irrep      Energy
               9       Occ  Alpha       7 (A1)     -8.2046
               30      Vir  Alpha       2 (A2)     -0.1403
               46      Vir  Alpha       4 (A2)     -0.0230
               69      Vir  Alpha       6 (A2)      0.0832
               109     Vir  Alpha       8 (A2)      0.6044


 EOMEE transition 4/A2
 Total energy = -682.83776268 a.u.  Excitation energy = 203.8744 eV.
 R0^2 = 0.0000  R1^2 = 0.8448  R2_CCVV^2 = 0.0036  R2_COVV^2 = 0.0758  Res^2 = 1.41e-05
 Conv-d = yes

 Amplitude    Transitions between orbitals
  0.7658       3 (B1) B                  ->    5 (B2) B                   
 -0.3931       3 (B1) B                  ->    6 (B2) B                   
 -0.1730       3 (B1) B                  ->    13 (B2) B                  
 -0.1614       3 (B1) B                  ->    7 (B2) B                   
  0.1351       3 (B1) B                  ->    16 (B2) B                  

              Summary of significant orbitals:

               Number  Type             Irrep      Energy
               11      Occ  Beta        3 (B1)     -8.2007
               31      Vir  Beta        5 (B2)     -0.0830
               34      Vir  Beta        6 (B2)     -0.0614
               40      Vir  Beta        7 (B2)     -0.0414
               68      Vir  Beta       13 (B2)      0.0841
               85      Vir  Beta       16 (B2)      0.1800


 EOMEE transition 5/A2
 Total energy = -682.79257340 a.u.  Excitation energy = 205.1040 eV.
 R0^2 = 0.0000  R1^2 = 0.8330  R2_CCVV^2 = 0.0035  R2_COVV^2 = 0.0817  Res^2 = 5.77e-05
 Conv-d = yes

 Amplitude    Transitions between orbitals
 -0.8367       7 (A1) B                  ->    2 (A2) B                   
  0.2869       7 (A1) B                  ->    4 (A2) B                   
  0.1894       7 (A1) B                  ->    6 (A2) B                   
  0.1040       7 (A1) B                  ->    1 (A2) B                   

              Summary of significant orbitals:

               Number  Type             Irrep      Energy
               9       Occ  Beta        7 (A1)     -8.2038
               29      Vir  Beta        1 (A2)     -0.2636
               37      Vir  Beta        2 (A2)     -0.0496
               47      Vir  Beta        4 (A2)     -0.0185
               71      Vir  Beta        6 (A2)      0.1003


 EOMEE transition 6/A2
 Total energy = -682.73571607 a.u.  Excitation energy = 206.6512 eV.
 R0^2 = 0.0000  R1^2 = 0.8637  R2_CCVV^2 = 0.0037  R2_COVV^2 = 0.0663  Res^2 = 3.76e-05
 Conv-d = yes

 Amplitude    Transitions between orbitals
  0.6487       1 (B2) A                  ->    10 (B1) A                  
  0.4040       1 (B2) A                  ->    11 (B1) A                  
 -0.2415       1 (B2) A                  ->    13 (B1) A                  
  0.2373       1 (B2) A                  ->    15 (B1) A                  
  0.1876       1 (B2) A                  ->    16 (B1) A                  
  0.1849       1 (B2) A                  ->    20 (B1) A                  
  0.1760       1 (B2) A                  ->    18 (B1) A                  
  0.1088       1 (B2) A                  ->    14 (B1) A                  
 -0.1052       1 (B2) A                  ->    23 (B1) A                  

              Summary of significant orbitals:

               Number  Type             Irrep      Energy
               11      Occ  Alpha       1 (B2)     -8.1995
               33      Vir  Alpha      10 (B1)     -0.0745
               37      Vir  Alpha      11 (B1)     -0.0500
               43      Vir  Alpha      13 (B1)     -0.0262
               50      Vir  Alpha      14 (B1)     -0.0135
               52      Vir  Alpha      15 (B1)     -0.0051
               55      Vir  Alpha      16 (B1)      0.0019
               62      Vir  Alpha      18 (B1)      0.0475
               71      Vir  Alpha      20 (B1)      0.0920
               79      Vir  Alpha      23 (B1)      0.1306


 EOMEE transition 7/A2
 Total energy = -682.73359037 a.u.  Excitation energy = 206.7090 eV.
 R0^2 = 0.0000  R1^2 = 0.8634  R2_CCVV^2 = 0.0037  R2_COVV^2 = 0.0665  Res^2 = 6.10e-05
 Conv-d = yes

 Amplitude    Transitions between orbitals
 -0.6313       1 (B2) B                  ->    10 (B1) B                  
 -0.4228       1 (B2) B                  ->    11 (B1) B                  
 -0.2322       1 (B2) B                  ->    15 (B1) B                  
  0.2171       1 (B2) B                  ->    13 (B1) B                  
 -0.2039       1 (B2) B                  ->    16 (B1) B                  
 -0.1887       1 (B2) B                  ->    20 (B1) B                  
 -0.1769       1 (B2) B                  ->    18 (B1) B                  
  0.1187       1 (B2) B                  ->    14 (B1) B                  
 -0.1122       1 (B2) B                  ->    12 (B1) B                  
 -0.1082       1 (B2) B                  ->    23 (B1) B                  

              Summary of significant orbitals:

               Number  Type             Irrep      Energy
               10      Occ  Beta        1 (B2)     -8.2014
               32      Vir  Beta       10 (B1)     -0.0739
               36      Vir  Beta       11 (B1)     -0.0497
               42      Vir  Beta       12 (B1)     -0.0268
               43      Vir  Beta       13 (B1)     -0.0257
               50      Vir  Beta       14 (B1)     -0.0132
               52      Vir  Beta       15 (B1)     -0.0050
               55      Vir  Beta       16 (B1)      0.0024
               64      Vir  Beta       18 (B1)      0.0478
               70      Vir  Beta       20 (B1)      0.0929
               79      Vir  Beta       23 (B1)      0.1311


 EOMEE transition 8/A2
 Total energy = -682.73003396 a.u.  Excitation energy = 206.8058 eV.
 R0^2 = 0.0000  R1^2 = 0.8660  R2_CCVV^2 = 0.0037  R2_COVV^2 = 0.0652  Res^2 = 4.58e-05
 Conv-d = yes

 Amplitude    Transitions between orbitals
  0.6630       3 (B1) A                  ->    6 (B2) A                   
 -0.4188       3 (B1) A                  ->    7 (B2) A                   
  0.3127       3 (B1) A                  ->    11 (B2) A                  
 -0.2795       3 (B1) A                  ->    12 (B2) A                  
 -0.1684       3 (B1) A                  ->    14 (B2) A                  
 -0.1373       3 (B1) A                  ->    8 (B2) A                   

              Summary of significant orbitals:

               Number  Type             Irrep      Energy
               10      Occ  Alpha       3 (B1)     -8.2005
               34      Vir  Alpha       6 (B2)     -0.0684
               40      Vir  Alpha       7 (B2)     -0.0424
               45      Vir  Alpha       8 (B2)     -0.0231
               59      Vir  Alpha      11 (B2)      0.0217
               63      Vir  Alpha      12 (B2)      0.0486
               72      Vir  Alpha      14 (B2)      0.0958


 EOMEE transition 9/A2
 Total energy = -682.72773186 a.u.  Excitation energy = 206.8685 eV.
 R0^2 = 0.0000  R1^2 = 0.8658  R2_CCVV^2 = 0.0037  R2_COVV^2 = 0.0652  Res^2 = 5.86e-05
 Conv-d = yes

 Amplitude    Transitions between orbitals
  0.4832       3 (B1) B                  ->    7 (B2) B                   
  0.4638       3 (B1) B                  ->    6 (B2) B                   
  0.3933       3 (B1) B                  ->    5 (B2) B                   
  0.3173       3 (B1) B                  ->    12 (B2) B                  
  0.3078       3 (B1) B                  ->    11 (B2) B                  
 -0.1465       3 (B1) B                  ->    15 (B2) B                  
  0.1274       3 (B1) B                  ->    8 (B2) B                   
  0.1049       3 (B1) B                  ->    17 (B2) B                  

              Summary of significant orbitals:

               Number  Type             Irrep      Energy
               11      Occ  Beta        3 (B1)     -8.2007
               31      Vir  Beta        5 (B2)     -0.0830
               34      Vir  Beta        6 (B2)     -0.0614
               40      Vir  Beta        7 (B2)     -0.0414
               45      Vir  Beta        8 (B2)     -0.0229
               59      Vir  Beta       11 (B2)      0.0294
               61      Vir  Beta       12 (B2)      0.0464
               73      Vir  Beta       15 (B2)      0.1031
               101     Vir  Beta       17 (B2)      0.5042


 EOMEE transition 10/A2
 Total energy = -682.69513150 a.u.  Excitation energy = 207.7556 eV.
 R0^2 = 0.0000  R1^2 = 0.8599  R2_CCVV^2 = 0.0037  R2_COVV^2 = 0.0682  Res^2 = 5.19e-05
 Conv-d = yes

 Amplitude    Transitions between orbitals
  0.5390       1 (B2) A                  ->    10 (B1) A                  
 -0.4750       1 (B2) A                  ->    11 (B1) A                  
 -0.3856       1 (B2) A                  ->    12 (B1) A                  
 -0.2122       1 (B2) A                  ->    18 (B1) A                  
 -0.2060       1 (B2) A                  ->    15 (B1) A                  
 -0.1849       1 (B2) A                  ->    20 (B1) A                  
  0.1480       1 (B2) A                  ->    17 (B1) A                  

              Summary of significant orbitals:

               Number  Type             Irrep      Energy
               11      Occ  Alpha       1 (B2)     -8.1995
               33      Vir  Alpha      10 (B1)     -0.0745
               37      Vir  Alpha      11 (B1)     -0.0500
               42      Vir  Alpha      12 (B1)     -0.0270
               52      Vir  Alpha      15 (B1)     -0.0051
               57      Vir  Alpha      17 (B1)      0.0123
               62      Vir  Alpha      18 (B1)      0.0475
               71      Vir  Alpha      20 (B1)      0.0920


      CVS-EOM-CCSD/MP2 left amplitudes will be solved using Davidson.
        Amplitudes will be solved using MOM  algorithm.
     Hard-coded thresholds: 
     LinDepThresh=1.00e-15  NormThresh=1.00e-06  ReorthogonThresh=1.00e-02

      Roots     MaxVec    MaxIter   Precond   Conv      Shift    
      10        1000      200       1         1.00e-04  0.00e+00  
 ------------------------------------------------------------------------------
      Iter ConvRoots NVecs ResNorm Current eigenvalues (eV)
 ------------------------------------------------------------------------------
      0    0      10    2.01e-02   199.0938   203.1270   203.5719   203.8744   205.1040   206.6512   206.7090   206.8058   206.8685   207.7556   
      1    0      20    2.82e+00   199.0938   203.1262   203.5704   203.8744   205.1035   206.6509   206.7086   206.8055   206.8681   207.7549   
      2    0      30    7.00e-03   199.0942   203.1262   203.5705   203.8742   205.1032   206.6507   206.7087   206.8058   206.8684   207.7550   
      3    0      40    3.47e-04   199.0943   203.1261   203.5702   203.8740   205.1026   206.6505   206.7086   206.8057   206.8683   207.7548   
      4    7      50    6.39e-05   199.0943*  203.1259   203.5702*  203.8739*  205.1024*  206.6504*  206.7085   206.8057*  206.8683*  207.7546   
      5    10     53    2.74e-05   199.0943*  203.1259*  203.5702*  203.8739*  205.1024*  206.6504*  206.7084*  206.8057*  206.8683*  207.7545*  

     Davidson procedure converged

        Solving for CVS-EOMEE-CCSD B1 transitions.

       EOMEE-CCSD-SINGLES right amplitudes will be solved using Davidson.
        Amplitudes will be solved using standard  algorithm.
     Hard-coded thresholds: 
     LinDepThresh=1.00e-15  NormThresh=1.00e-06  ReorthogonThresh=1.00e-02

      Roots     MaxVec    MaxIter   Precond   Conv      Shift    
      10        1000      200       1         1.00e-04  0.00e+00  
 ------------------------------------------------------------------------------
      Iter ConvRoots NVecs ResNorm Current eigenvalues (eV)
 ------------------------------------------------------------------------------
      0    0      10    1.81e-03   212.5887   216.3899   217.5212   217.5610   218.7579   218.7751   218.9486   218.9548   219.1053   219.1547   
      1    0      20    3.99e-01   212.4641   216.3477   217.2666   217.3123   218.5178   218.5384   218.5904   218.6353   218.7439   218.7676   
      2    0      30    4.76e-02   212.4264   212.6518   213.0429   216.0408   216.1334   216.3229   217.6959   217.7170   218.0342   218.0923   
      3    2      40    1.47e-02   211.6358   212.0491   212.4260*  215.6932   215.8489   216.3220*  217.4290   217.4756   217.7934   217.8272   
      4    2      48    3.42e-03   211.6092   212.0233   212.4260*  215.6763   215.8354   216.3220*  217.3866   217.4381   217.7487   217.7779   
      5    6      56    3.21e-04   211.6089*  212.0229*  212.4260*  215.6753*  215.8346*  216.3220*  217.3829   217.4346   217.7377   217.7667   
      6    10     60    4.59e-05   211.6089*  212.0229*  212.4260*  215.6752*  215.8345*  216.3220*  217.3822*  217.4339*  217.7367*  217.7658*  

     Davidson procedure converged

        CVS-EOMEE-CCSD/MP2 right amplitudes will be solved using Davidson.
        Amplitudes will be solved using standard  algorithm.
     Hard-coded thresholds: 
     LinDepThresh=1.00e-15  NormThresh=1.00e-06  ReorthogonThresh=1.00e-02

      Roots     MaxVec    MaxIter   Precond   Conv      Shift    
      10        1000      200       1         1.00e-04  0.00e+00  
 ------------------------------------------------------------------------------
      Iter ConvRoots NVecs ResNorm Current eigenvalues (eV)
 ------------------------------------------------------------------------------
      0    0      10    1.79e+00   211.6089   212.0229   212.4260   215.6752   215.8345   216.3220   217.3822   217.4339   217.7367   217.7658   
      1    0      20    1.38e+01   209.4549   209.8593   210.2204   213.4791   213.6882   213.8000   215.1976   215.2292   215.4311   215.4540   
      2    0      30    7.67e-02   199.4288   203.3061   203.5688   203.9319   205.8487   205.8751   207.3241   207.3629   207.3733   207.3894   
      3    0      40    1.23e-02   199.0284   202.9749   203.2257   203.4858   205.5410   205.5742   207.0144   207.0456   207.0597   207.0667   
      4    0      50    2.00e-03   198.9924   202.9266   203.1721   203.4471   205.4954   205.5337   206.9663   206.9811   207.0019   207.0111   
      5    0      60    4.18e-03   198.9798   202.9187   203.1627   203.4237   205.4673   205.5095   206.9135   206.9267   206.9481   206.9603   
      6    1      70    8.00e-04   198.9751*  202.9175   203.1610   203.4167   205.4513   205.4947   206.8647   206.8876   206.9074   206.9144   
      7    2      79    1.05e-03   198.9751*  202.9156*  203.1588   203.4172   205.4454   205.4893   206.8461   206.8658   206.8852   206.8945   
      8    4      87    3.12e-04   198.9751*  202.9153*  203.1579*  203.4161*  205.4425   205.4867   206.8352   206.8526   206.8716   206.8826   
      9    4      93    4.82e-04   198.9751*  202.9153*  203.1579*  203.4161*  205.4399   205.4843   206.8233   206.8397   206.8581   206.8687   
      10   6      99    1.55e-04   198.9751*  202.9153*  203.1579*  203.4161*  205.4392*  205.4838*  206.8178   206.8341   206.8511   206.8607   
      11   6      103   3.70e-04   198.9751*  202.9153*  203.1579*  203.4161*  205.4391*  205.4837*  206.8140   206.8317   206.8414   206.8552   
      12   7      107   8.07e-04   198.9750*  202.9153*  203.1579*  203.4161*  205.4390*  205.4835*  206.7900   206.8109   206.8301*  206.8515   
      13   8      110   9.59e-03   198.9750*  202.9153*  203.1579*  203.4161*  205.4390*  205.4835*  206.2419   206.8095*  206.8299*  206.8496   
      14   8      112   3.56e-03   198.9749*  202.9153*  203.1579*  203.4161*  205.4391*  205.4840   205.4988   206.8095*  206.8299*  206.8485*  
[...]
 State B: cvs_eomee_ccsd/uhfref: 7/B1
 Transition dipole moment (a.u.):
   A->B: 0.017410 (X 0.017410, Y 0.000000, Z 0.000000)
   B->A: 0.017110 (X 0.017110, Y 0.000000, Z 0.000000)
 Oscillator strength (a.u.): 0.001500
 Norm of one-particle transition density matrix:
   A->B: 0.930273;   B->A: 0.912653
   ||gamma^AB||*||gamma^BA||: 0.849016

 ------------------------------------------------------------------------------
 State A: ccsd: 0/A1
 State B: cvs_eomee_ccsd/uhfref: 8/B1
 Transition dipole moment (a.u.):
   A->B: 0.002053 (X -0.002053, Y 0.000000, Z 0.000000)
   B->A: 0.001814 (X -0.001814, Y 0.000000, Z 0.000000)
 Oscillator strength (a.u.): 0.000019
 Norm of one-particle transition density matrix:
   A->B: 0.926615;   B->A: 0.907508
   ||gamma^AB||*||gamma^BA||: 0.840910

 ------------------------------------------------------------------------------
 State A: ccsd: 0/A1
 State B: cvs_eomee_ccsd/uhfref: 9/B1
 Transition dipole moment (a.u.):
   A->B: 0.003074 (X -0.003074, Y 0.000000, Z 0.000000)
   B->A: 0.003033 (X -0.003033, Y 0.000000, Z 0.000000)
 Oscillator strength (a.u.): 0.000047
 Norm of one-particle transition density matrix:
   A->B: 0.926338;   B->A: 0.907906
   ||gamma^AB||*||gamma^BA||: 0.841028

 ------------------------------------------------------------------------------
 State A: ccsd: 0/A1
 State B: cvs_eomee_ccsd/uhfref: 10/B1
 Transition dipole moment (a.u.):
   A->B: 0.000400 (X -0.000400, Y 0.000000, Z 0.000000)
   B->A: 0.000472 (X -0.000472, Y 0.000000, Z 0.000000)
 Oscillator strength (a.u.): 0.000001
 Norm of one-particle transition density matrix:
   A->B: 0.926368;   B->A: 0.907916
   ||gamma^AB||*||gamma^BA||: 0.841064

 ------------------------------------------------------------------------------
 State A: ccsd: 0/A1
 State B: cvs_eomee_ccsd/uhfref: 1/B2
 Transition dipole moment (a.u.):
   A->B: 0.000841 (X 0.000000, Y -0.000841, Z 0.000000)
   B->A: 0.000842 (X 0.000000, Y -0.000842, Z 0.000000)
 Oscillator strength (a.u.): 0.000003
 Norm of one-particle transition density matrix:
   A->B: 0.894157;   B->A: 0.888835
   ||gamma^AB||*||gamma^BA||: 0.794757

 ------------------------------------------------------------------------------
 State A: ccsd: 0/A1
 State B: cvs_eomee_ccsd/uhfref: 2/B2
 Transition dipole moment (a.u.):
   A->B: 0.011512 (X 0.000000, Y -0.011512, Z 0.000000)
   B->A: 0.011668 (X 0.000000, Y -0.011668, Z 0.000000)
 Oscillator strength (a.u.): 0.000668
 Norm of one-particle transition density matrix:
   A->B: 0.927276;   B->A: 0.933048
   ||gamma^AB||*||gamma^BA||: 0.865193

 ------------------------------------------------------------------------------
 State A: ccsd: 0/A1
 State B: cvs_eomee_ccsd/uhfref: 3/B2
 Transition dipole moment (a.u.):
   A->B: 0.034687 (X 0.000000, Y -0.034687, Z 0.000000)
   B->A: 0.034676 (X 0.000000, Y -0.034676, Z 0.000000)
 Oscillator strength (a.u.): 0.005986
 Norm of one-particle transition density matrix:
   A->B: 0.926964;   B->A: 0.929523
   ||gamma^AB||*||gamma^BA||: 0.861634

 ------------------------------------------------------------------------------
 State A: ccsd: 0/A1
 State B: cvs_eomee_ccsd/uhfref: 4/B2
 Transition dipole moment (a.u.):
   A->B: 0.018787 (X 0.000000, Y -0.018787, Z 0.000000)
   B->A: 0.018796 (X 0.000000, Y -0.018796, Z 0.000000)
 Oscillator strength (a.u.): 0.001758
 Norm of one-particle transition density matrix:
   A->B: 0.893213;   B->A: 0.906819
   ||gamma^AB||*||gamma^BA||: 0.809983

 ------------------------------------------------------------------------------
 State A: ccsd: 0/A1
 State B: cvs_eomee_ccsd/uhfref: 5/B2
 Transition dipole moment (a.u.):
   A->B: 0.001565 (X 0.000000, Y 0.001565, Z 0.000000)
   B->A: 0.001548 (X 0.000000, Y 0.001548, Z 0.000000)
 Oscillator strength (a.u.): 0.000012
 Norm of one-particle transition density matrix:
   A->B: 0.885954;   B->A: 0.894876
   ||gamma^AB||*||gamma^BA||: 0.792819

 ------------------------------------------------------------------------------
 State A: ccsd: 0/A1
 State B: cvs_eomee_ccsd/uhfref: 6/B2
 Transition dipole moment (a.u.):
   A->B: 0.010163 (X 0.000000, Y 0.010163, Z 0.000000)
   B->A: 0.010694 (X 0.000000, Y 0.010694, Z 0.000000)
 Oscillator strength (a.u.): 0.000543
 Norm of one-particle transition density matrix:
   A->B: 0.890656;   B->A: 0.909341
   ||gamma^AB||*||gamma^BA||: 0.809911

 ------------------------------------------------------------------------------
 State A: ccsd: 0/A1
 State B: cvs_eomee_ccsd/uhfref: 7/B2
 Transition dipole moment (a.u.):
   A->B: 0.002392 (X 0.000000, Y -0.002392, Z 0.000000)
   B->A: 0.002264 (X 0.000000, Y -0.002264, Z 0.000000)
 Oscillator strength (a.u.): 0.000027
 Norm of one-particle transition density matrix:
   A->B: 0.900176;   B->A: 0.886587
   ||gamma^AB||*||gamma^BA||: 0.798084

 ------------------------------------------------------------------------------
 State A: ccsd: 0/A1
 State B: cvs_eomee_ccsd/uhfref: 8/B2
 Transition dipole moment (a.u.):
   A->B: 0.007199 (X 0.000000, Y 0.007199, Z 0.000000)
   B->A: 0.007072 (X 0.000000, Y 0.007072, Z 0.000000)
 Oscillator strength (a.u.): 0.000256
 Norm of one-particle transition density matrix:
   A->B: 0.930012;   B->A: 0.912822
   ||gamma^AB||*||gamma^BA||: 0.848936

 ------------------------------------------------------------------------------
 State A: ccsd: 0/A1
 State B: cvs_eomee_ccsd/uhfref: 9/B2
 Transition dipole moment (a.u.):
   A->B: 0.013632 (X 0.000000, Y 0.013632, Z 0.000000)
   B->A: 0.013392 (X 0.000000, Y 0.013392, Z 0.000000)
 Oscillator strength (a.u.): 0.000919
 Norm of one-particle transition density matrix:
   A->B: 0.930243;   B->A: 0.912381
   ||gamma^AB||*||gamma^BA||: 0.848736

 ------------------------------------------------------------------------------
 State A: ccsd: 0/A1
 State B: cvs_eomee_ccsd/uhfref: 10/B2
 Transition dipole moment (a.u.):
   A->B: 0.006931 (X 0.000000, Y 0.006931, Z 0.000000)
   B->A: 0.006798 (X 0.000000, Y 0.006798, Z 0.000000)
 Oscillator strength (a.u.): 0.000239
 Norm of one-particle transition density matrix:
   A->B: 0.925766;   B->A: 0.907025
   ||gamma^AB||*||gamma^BA||: 0.839693


 All requested transition properties have been computed

 Transition Properties:   CPU 769.05 s  wall 301.83 s

 Total ccman2 time:   CPU 218228.09 s  wall 35953.48 s

 34 B2   58 B1   35 B2   19 A2   59 B1   36 B2   60 B1   81 A1                 
  3.484   3.563   3.686   3.687   3.764   3.946   4.165   4.219
 61 B1   82 A1   83 A1   62 B1   84 A1   85 A1   63 B1   86 A1                 
  4.278   4.302   4.893   5.007   5.202   5.227   5.488   5.558
 87 A1   64 B1   88 A1   65 B1   66 B1   89 A1   90 A1   67 B1                 
  5.929  10.403  20.400  20.465  20.469  20.588  20.614  20.879
 91 A1   92 A1   93 A1   68 B1   94 A1   95 A1   69 B1   96 A1                 
 26.634  26.907  27.360  79.968  80.036  80.040  80.145  80.165
 37 B2   70 B1   97 A1   98 A1   71 B1   99 A1  100 A1   72 B1                 
 80.369 219.270 321.809 321.873 321.875 321.969 321.983 322.149
101 A1  102 A1  103 A1   73 B1  104 A1  105 A1   74 B1  106 A1                 
*******1431.4361431.4371431.5191431.5291431.6698749.6188749.666
107 A1   75 B1  108 A1  109 A1   76 B1  110 A1  111 A1   77 B1                 
*******8749.7368749.7418749.856
112 A1  113 A1   78 B1  114 A1                                                 

 --------------------------------------------------------------
             Orbital Energies (a.u.) and Symmetries
 --------------------------------------------------------------

 Alpha MOs, Unrestricted
 -- Occupied --                  
-105.01  -11.51  -11.51  -11.51  -11.50  -11.50  -11.45  -10.74
  1 A1    1 B1    2 A1    3 A1    2 B1    4 A1    5 A1    6 A1                 
 -8.205  -8.200  -8.199  -1.421  -1.330  -1.303  -1.195  -1.073
  7 A1    3 B1    1 B2    8 A1    9 A1    4 B1   10 A1    5 B1                 
 -1.047  -0.930  -0.878  -0.870  -0.849  -0.783  -0.774  -0.735
 11 A1   12 A1    6 B1   13 A1    7 B1   14 A1    2 B2    8 B1                 
 -0.732  -0.657  -0.646  -0.626  -0.521
 15 A1    3 B2    1 A2    9 B1    4 B2                                         
 -- Virtual --                   
 -0.140  -0.092  -0.090  -0.075  -0.068  -0.067  -0.055  -0.050
  2 A2    5 B2   16 A1   10 B1    6 B2   17 A1   18 A1   11 B1                 
 -0.049  -0.047  -0.042  -0.031  -0.027  -0.026  -0.026  -0.023
  3 A2   19 A1    7 B2   20 A1   12 B1   13 B1   21 A1    8 B2                 
 -0.023  -0.022  -0.018  -0.017  -0.014  -0.009  -0.005  -0.003
  4 A2   22 A1    9 B2   23 A1   14 B1   24 A1   15 B1   10 B2                 
 -0.001   0.002   0.003   0.012   0.019   0.022   0.034   0.037
 25 A1   16 B1   26 A1   17 B1   27 A1   11 B2   28 A1    5 A2                 
  0.047   0.049   0.049   0.069   0.071   0.075   0.075   0.083
 18 B1   12 B2   29 A1   13 B2   30 A1   31 A1   19 B1    6 A2                 
  0.089   0.092   0.096   0.101   0.107   0.112   0.112   0.121
 32 A1   20 B1   14 B2   21 B1   15 B2   33 A1   22 B1   34 A1                 
  0.130   0.131   0.146   0.148   0.152   0.154   0.171   0.178
 35 A1   23 B1   36 A1   24 B1   16 B2   37 A1   38 A1   25 B1                 
  0.199   0.209   0.232   0.236   0.245   0.252   0.256   0.310
 26 B1   39 A1   27 B1   40 A1   41 A1   42 A1   28 B1   43 A1                 
  0.324   0.340   0.341   0.443   0.454   0.466   0.491   0.500
 29 B1   44 A1   30 B1   45 A1   31 B1   32 B1   46 A1   17 B2                 
  0.523   0.524   0.529   0.549   0.550   0.550   0.597   0.604
 47 A1   33 B1   18 B2    7 A2   34 B1   48 A1   19 B2    8 A2                 
  0.605   0.611   0.639   0.682   0.684   0.696   0.734   0.735
 35 B1   49 A1   20 B2   50 A1   21 B2   51 A1   52 A1   36 B1                 
  0.760   0.775   0.816   0.833   0.847   0.860   0.863   0.870
 37 B1   53 A1   38 B1   54 A1   55 A1   22 B2   39 B1   56 A1                 
  0.880   0.900   0.922   0.955   0.970   0.982   1.006   1.011
 40 B1   57 A1   41 B1    9 A2   58 A1   42 B1   10 A2   23 B2                 
  1.050   1.060   1.121   1.132   1.147   1.261   1.271   1.283
 59 A1   11 A2   60 A1   24 B2   12 A2   61 A1   62 A1   43 B1                 
  1.388   1.478   1.494   1.546   1.557   1.605   1.615   1.647
 25 B2   63 A1   44 B1   64 A1   45 B1   26 B2   13 A2   65 A1                 
  1.685   1.689   1.692   1.759   1.766   1.806   1.813   1.889
 27 B2   46 B1   66 A1   67 A1   47 B1   28 B2   14 A2   48 B1                 
  1.958   1.971   1.978   1.994   2.021   2.031   2.059   2.088
 68 A1   29 B2   15 A2   49 B1   50 B1   69 A1   30 B2   70 A1                 
  2.130   2.144   2.187   2.355   2.393   2.394   2.515   2.530
 51 B1   16 A2   71 A1   31 B2   17 A2   52 B1   32 B2   72 A1                 
  2.564   2.602   2.605   2.656   2.704   2.735   2.763   2.798
 53 B1   73 A1   54 B1   55 B1   74 A1   75 A1   76 A1   56 B1                 
  2.809   2.825   2.825   2.837   2.848   2.939   2.971   2.974
 77 A1   33 B2   78 A1   57 B1   79 A1   18 A2   80 A1   34 B2                 
  2.983   3.032   3.065   3.096   3.227   3.310   3.446   3.484
 58 B1   19 A2   35 B2   59 B1   36 B2   60 B1   81 A1   61 B1                 
  3.557   3.679   3.681   3.761   3.943   4.156   4.218   4.269
 82 A1   62 B1   83 A1   84 A1   85 A1   63 B1   86 A1   87 A1                 
  4.297   4.888   5.001   5.193   5.226   5.489   5.548   5.924
 64 B1   88 A1   65 B1   66 B1   89 A1   90 A1   67 B1   91 A1                 
 10.403  20.398  20.459  20.470  20.588  20.609  20.877  26.635
 92 A1   93 A1   68 B1   94 A1   95 A1   69 B1   96 A1   37 B2                 
 26.907  27.359  79.968  80.034  80.041  80.146  80.164  80.368
 70 B1   97 A1   98 A1   71 B1   99 A1  100 A1   72 B1  101 A1                 
219.270 321.809 321.873 321.875 321.969 321.982 322.1491431.379
102 A1  103 A1   73 B1  104 A1  105 A1   74 B1  106 A1  107 A1                 
*******1431.4371431.5191431.5291431.6698749.6188749.6668749.666
 75 B1  108 A1  109 A1   76 B1  110 A1  111 A1   77 B1  112 A1                 
*******8749.7418749.856
113 A1   78 B1  114 A1                                                         

 Beta MOs, Unrestricted
 -- Occupied --                  
-105.01  -11.52  -11.50  -11.50  -11.49  -11.49  -11.46  -10.74
  1 A1    2 A1    3 A1    1 B1    2 B1    4 A1    5 A1    6 A1                 
 -8.204  -8.201  -8.201  -1.404  -1.325  -1.247  -1.192  -1.052
  7 A1    1 B2    3 B1    8 A1    9 A1    4 B1   10 A1    5 B1                 
 -1.043  -0.926  -0.871  -0.866  -0.839  -0.785  -0.734  -0.729
 11 A1   12 A1    6 B1   13 A1    7 B1   14 A1    8 B1   15 A1                 
 -0.727  -0.633  -0.625  -0.536
  2 B2    3 B2    9 B1    4 B2                                                 
 -- Virtual --                   
 -0.264  -0.089  -0.083  -0.074  -0.067  -0.061  -0.055  -0.050
  1 A2   16 A1    5 B2   10 B1   17 A1    6 B2   18 A1   11 B1                 
 -0.050  -0.047  -0.047  -0.041  -0.031  -0.027  -0.026  -0.026
  2 A2   19 A1    3 A2    7 B2   20 A1   12 B1   13 B1   21 A1                 
 -0.023  -0.022  -0.018  -0.018  -0.017  -0.013  -0.009  -0.005
  8 B2   22 A1    4 A2    9 B2   23 A1   14 B1   24 A1   15 B1                 
 -0.003  -0.001   0.002   0.003   0.013   0.019   0.029   0.036
 10 B2   25 A1   16 B1   26 A1   17 B1   27 A1   11 B2   28 A1                 
  0.046   0.047   0.047   0.048   0.070   0.075   0.083   0.084
 12 B2   29 A1    5 A2   18 B1   30 A1   31 A1   19 B1   13 B2                 
  0.091   0.093   0.100   0.100   0.103   0.103   0.112   0.115
 32 A1   20 B1    6 A2   14 B2   15 B2   21 B1   33 A1   22 B1                 
  0.121   0.131   0.131   0.147   0.150   0.153   0.169   0.179
 34 A1   35 A1   23 B1   36 A1   24 B1   37 A1   38 A1   25 B1                 
  0.180   0.200   0.214   0.234   0.236   0.243   0.253   0.271
 16 B2   26 B1   39 A1   27 B1   40 A1   41 A1   42 A1   28 B1                 
  0.313   0.327   0.340   0.344   0.444   0.455   0.468   0.499
 43 A1   29 B1   44 A1   30 B1   45 A1   31 B1   32 B1   46 A1                 
  0.504   0.532   0.545   0.552   0.552   0.562   0.588   0.597
 17 B2   47 A1   33 B1   48 A1   18 B2   34 B1    7 A2   19 B2                 
  0.607   0.615   0.629   0.640   0.686   0.696   0.700   0.735
 35 B1   49 A1   20 B2    8 A2   50 A1   21 B2   51 A1   52 A1                 
  0.737   0.767   0.777   0.823   0.835   0.848   0.861   0.870
 36 B1   37 B1   53 A1   38 B1   54 A1   55 A1   22 B2   39 B1                 
  0.871   0.890   0.903   0.924   0.959   0.977   0.987   1.024
 56 A1   40 B1   57 A1   41 B1    9 A2   58 A1   42 B1   23 B2                 
  1.026   1.049   1.094   1.118   1.153   1.156   1.265   1.275
 10 A2   59 A1   11 A2   60 A1   24 B2   12 A2   61 A1   62 A1                 
  1.286   1.398   1.487   1.500   1.550   1.565   1.613   1.622
 43 B1   25 B2   63 A1   44 B1   64 A1   45 B1   26 B2   13 A2                 
  1.647   1.682   1.693   1.700   1.760   1.780   1.809   1.827
 65 A1   27 B2   66 A1   46 B1   67 A1   47 B1   28 B2   14 A2                 
  1.892   1.961   1.984   1.995   2.003   2.023   2.028   2.064
 48 B1   68 A1   15 A2   29 B2   49 B1   50 B1   69 A1   30 B2                 
  2.091   2.137   2.162   2.188   2.365   2.400   2.405   2.513
 70 A1   51 B1   16 A2   71 A1   31 B2   52 B1   17 A2   32 B2                 
  2.530   2.567   2.602   2.607   2.657   2.708   2.737   2.765
 72 A1   53 B1   73 A1   54 B1   55 B1   74 A1   75 A1   76 A1                 
  2.800   2.810   2.826   2.838   2.844   2.848   2.970   2.971
 56 B1   77 A1   78 A1   57 B1   33 B2   79 A1   18 A2   80 A1                 
  2.974   2.984   3.060   3.064   3.100   3.238   3.313   3.443
 34 B2   58 B1   35 B2   19 A2   59 B1   36 B2   60 B1   81 A1                 
  3.484   3.563   3.686   3.687   3.764   3.946   4.165   4.219
 61 B1   82 A1   83 A1   62 B1   84 A1   85 A1   63 B1   86 A1                 
  4.278   4.302   4.893   5.007   5.202   5.227   5.488   5.558
 87 A1   64 B1   88 A1   65 B1   66 B1   89 A1   90 A1   67 B1                 
  5.929  10.403  20.400  20.465  20.469  20.588  20.614  20.879
 91 A1   92 A1   93 A1   68 B1   94 A1   95 A1   69 B1   96 A1                 
 26.634  26.907  27.360  79.968  80.036  80.040  80.145  80.165
 37 B2   70 B1   97 A1   98 A1   71 B1   99 A1  100 A1   72 B1                 
 80.369 219.270 321.809 321.873 321.875 321.969 321.983 322.149
101 A1  102 A1  103 A1   73 B1  104 A1  105 A1   74 B1  106 A1                 
*******1431.4361431.4371431.5191431.5291431.6698749.6188749.666
107 A1   75 B1  108 A1  109 A1   76 B1  110 A1  111 A1   77 B1                 
*******8749.7368749.7418749.856
112 A1  113 A1   78 B1  114 A1                                                 
 --------------------------------------------------------------

          Ground-State Mulliken Net Atomic Charges

     Atom                 Charge (a.u.)    Spin (a.u.)
  --------------------------------------------------------
      1 H                     0.299987      -0.038511
      2 C                    -0.277789       0.590292
      3 C                    -0.173693       0.423808
      4 H                     0.333377      -0.030179
      5 C                    -0.418915      -0.299000
      6 H                     0.262936       0.011736
      7 C                    -0.173693       0.423808
      8 H                     0.333377      -0.030179
      9 C                    -0.277789       0.590292
     10 H                     0.299987      -0.038511
     11 C                     0.066788      -0.572208
     12 Cl                    0.725426      -0.031348
  --------------------------------------------------------
  Sum of atomic charges =     1.000000
  Sum of spin   charges =     1.000000

 -----------------------------------------------------------------
                    Cartesian Multipole Moments
 -----------------------------------------------------------------
    Charge (ESU x 10^10)
                 4.8032
    Dipole Moment (Debye)
         X      -0.0000      Y       0.0000      Z      -4.9358
       Tot       4.9358
    Quadrupole Moments (Debye-Ang)
        XX     -28.2031     XY      -0.0000     YY     -47.6541
        XZ       0.0000     YZ      -0.0000     ZZ     -31.6869
    Octopole Moments (Debye-Ang^2)
       XXX      -0.0000    XXY       0.0000    XYY      -0.0000
       YYY       0.0000    XXZ     -12.8745    XYZ       0.0000
       YYZ       4.3048    XZZ      -0.0000    YZZ       0.0000
       ZZZ     -18.0377
    Hexadecapole Moments (Debye-Ang^3)
      XXXX    -212.9491   XXXY       0.0000   XXYY     -58.9623
Archival summary:
1\1\n-62-23-12\SP\ProcedureUnspecified\BasisUnspecified\l165(1+,2)\malop\MonJan2120:14:582019MonJan2120:14:582019\0\\#,ProcedureUnspecified,BasisUnspecified,\\1,2\Cl\C,1,1.67234\C,2,1.42621,1,119.028\H,3,1.07964,2,119.225,1,0,0\C,3,1.36913,2,118.571,1,180,0\H,5,1.07947,3,120.589,2,180,0\C,5,1.41607,3,119.655,2,0,0\H,7,1.08121,5,119.198,3,-180,0\C,7,1.41607,5,121.603,3,-0,0\H,9,1.07947,7,119.756,5,-180,0\C,9,1.36913,7,119.655,5,0,0\H,11,1.07964,9,122.204,7,180,0\\HF=-689.363166\\@

 Total job time:  36055.18s(wall), 218797.55s(cpu) 
 Mon Jan 21 20:14:58 2019

        *************************************************************
        *                                                           *
        *  Thank you very much for using Q-Chem.  Have a nice day.  *
        *                                                           *
        *************************************************************


      XYYY       0.0000   YYYY     -52.6338   XXXZ      -0.0000
      XXYZ      -0.0000   XYYZ       0.0000   YYYZ      -0.0000
      XXZZ    -141.9460   XYZZ      -0.0000   YYZZ    -148.3855
      XZZZ       0.0000   YZZZ      -0.0000   ZZZZ    -640.4261
 -----------------------------------------------------------------
