n-62-23-15 10.66.23
Q-Chem Developer Version! Running on 10.66.23.*
                  Welcome to Q-Chem
     A Quantum Leap Into The Future Of Chemistry


 Q-Chem 5.1, Q-Chem, Inc., Pleasanton, CA (2018)

 Yihan Shao,  Zhengting Gan,  E. Epifanovsky,  A. T. B. Gilbert,  M. Wormit,  
 J. Kussmann,  A. W. Lange,  A. Behn,  Jia Deng,  Xintian Feng,  D. Ghosh,  
 M. Goldey,  P. R. Horn,  L. D. Jacobson,  I. Kaliman,  T. Kus,  A. Landau,  
 Jie Liu,  E. I. Proynov,  R. M. Richard,  R. P. Steele,  E. J. Sundstrom,  
 H. L. Woodcock III,  P. M. Zimmerman,  D. Zuev,  B. Albrecht,  E. Alguire,  
 S. A. Baeppler,  D. Barton,  Z. Benda,  Y. A. Bernard,  E. J. Berquist,  
 K. B. Bravaya,  H. Burton,  D. Casanova,  Chun-Min Chang,  Yunqing Chen,  
 A. Chien,  K. D. Closser,  M. P. Coons,  S. Coriani,  S. Dasgupta,  
 A. L. Dempwolff,  M. Diedenhofen,  Hainam Do,  R. G. Edgar,  Po-Tung Fang,  
 S. Faraji,  S. Fatehi,  Qingguo Feng,  K. D. Fenk,  J. Fosso-Tande,  
 Qinghui Ge,  A. Ghysels,  G. Gidofalvi,  J. Gomes,  J. Gonthier,  A. Gunina,  
 M. W. D. Hanson-Heine,  P. H. P. Harbach,  A. W. Hauser,  J. E. Herr,  
 E. G. Hohenstein,  Z. C. Holden,  Kerwin Hui,  T.-C. Jagau,  Hyunjun Ji,  
 B. Kaduk,  K. Khistyaev,  Jaehoon Kim,  P. Klunzinger,  K. Koh,  
 D. Kosenkov,  L. Koulias,  T. Kowalczyk,  C. M. Krauter,  A. Kunitsa,  
 Ka Un Lao,  A. Laurent,  K. V. Lawler,  Joonho Lee,  D. Lefrancois,  
 S. Lehtola,  D. S. Levine,  Yi-Pei Li,  You-Sheng Lin,  Fenglai Liu,  
 E. Livshits,  A. Luenser,  P. Manohar,  E. Mansoor,  S. F. Manzer,  
 Shan-Ping Mao,  Yuezhi Mao,  N. Mardirossian,  A. V. Marenich,  
 T. Markovich,  L. A. Martinez-Martinez,  S. A. Maurer,  N. J. Mayhall,  
 S. C. McKenzie,  J.-M. Mewes,  A. F. Morrison,  J. W. Mullinax,  K. Nanda,  
 T. S. Nguyen-Beck,  R. Olivares-Amaya,  J. A. Parkhill,  T. M. Perrine,  
 F. Plasser,  P. Pokhilko,  S. Prager,  A. Prociuk,  E. Ramos,  D. R. Rehn,  
 F. Rob,  M. Schneider,  N. Sergueev,  S. M. Sharada,  S. Sharma,  
 D. W. Small,  T. Stauch,  T. Stein,  Yu-Chuan Su,  A. J. W. Thom,  
 A. Tkatchenko,  T. Tsuchimochi,  N. M. Tubman,  L. Vogt,  M. L. Vidal,  
 O. Vydrov,  M. A. Watson,  J. Wenzel,  M. de Wergifosse,  T. A. Wesolowski,  
 A. White,  J. Witte,  A. Yamada,  Jun Yang,  K. Yao,  S. Yeganeh,  
 S. R. Yost,  Zhi-Qiang You,  A. Zech,  Igor Ying Zhang,  Xing Zhang,  
 Yan Zhao,  Ying Zhu,  B. R. Brooks,  G. K. L. Chan,  C. J. Cramer,  
 M. S. Gordon,  W. J. Hehre,  A. Klamt,  M. W. Schmidt,  C. D. Sherrill,  
 D. G. Truhlar,  A. Aspuru-Guzik,  R. Baer,  A. T. Bell,  N. A. Besley,  
 Jeng-Da Chai,  R. A. DiStasio Jr.,  A. Dreuw,  B. D. Dunietz,  
 T. R. Furlani,  Chao-Ping Hsu,  Yousung Jung,  Jing Kong,  D. S. Lambrecht,  
 WanZhen Liang,  C. Ochsenfeld,  V. A. Rassolov,  L. V. Slipchenko,  
 J. E. Subotnik,  T. Van Voorhis,  J. M. Herbert,  A. I. Krylov,  
 P. M. W. Gill,  M. Head-Gordon

 Contributors to earlier versions of Q-Chem not listed above: 
 R. D. Adamson,  B. Austin,  J. Baker,  G. J. O. Beran,  K. Brandhorst,  
 S. T. Brown,  E. F. C. Byrd,  A. K. Chakraborty,  C.-L. Cheng,  
 Siu Hung Chien,  D. M. Chipman,  D. L. Crittenden,  H. Dachsel,  
 R. J. Doerksen,  A. D. Dutoi,  L. Fusti-Molnar,  W. A. Goddard III,  
 A. Golubeva-Zadorozhnaya,  S. R. Gwaltney,  G. Hawkins,  A. Heyden,  
 S. Hirata,  G. Kedziora,  F. J. Keil,  C. Kelley,  Jihan Kim,  R. A. King,  
 R. Z. Khaliullin,  P. P. Korambath,  W. Kurlancheek,  A. M. Lee,  M. S. Lee,  
 S. V. Levchenko,  Ching Yeh Lin,  D. Liotard,  R. C. Lochan,  I. Lotan,  
 P. E. Maslen,  N. Nair,  D. P. O'Neill,  D. Neuhauser,  E. Neuscamman,  
 C. M. Oana,  R. Olson,  B. Peters,  R. Peverati,  P. A. Pieniazek,  
 Y. M. Rhee,  J. Ritchie,  M. A. Rohrdanz,  E. Rosta,  N. J. Russ,  
 H. F. Schaefer III,  N. E. Schultz,  N. Shenvi,  A. C. Simmonett,  A. Sodt,  
 D. Stuck,  K. S. Thanthiriwatte,  V. Vanovschi,  Tao Wang,  A. Warshel,  
 C. F. Williams,  Q. Wu,  X. Xu,  W. Zhang

 Please cite Q-Chem as follows:
 Y. Shao et al., Mol. Phys. 113, 184-215 (2015)
 DOI: 10.1080/00268976.2014.952696

 Q-Chem 5.1.0 for Intel X86 EM64T Linux

 Parts of Q-Chem use Armadillo 8.300.2 (Tropical Shenanigans).
 http://arma.sourceforge.net/

 Q-Chem begins on Mon Nov  5 20:44:08 2018  

Host: 
0

     Scratch files written to /work1/malop/qc_7410671.hnode2//

Checking the input file for inconsistencies... 	...done.

--------------------------------------------------------------
User input:
--------------------------------------------------------------
$commen
RI-MP2/cc-pVTZ optimized geometry. 
TR-NEXAFS
basis = 6-311(2+,+)G** (ucC)
$end

$molecule
0 1
H       2.4750347531     0.0000000000    -0.0000000000
C       1.3935929418     0.0000000000    -0.0000000000
C       0.6967964709     1.2068868901     0.0000000000
H       1.2375173766     2.1434429715     0.0000000000
C      -0.6967964709     1.2068868901     0.0000000000
H      -1.2375173766     2.1434429715     0.0000000000
C      -1.3935929418    -0.0000000000     0.0000000000
H      -2.4750347531    -0.0000000000     0.0000000000
C      -0.6967964709    -1.2068868901    -0.0000000000
H      -1.2375173766    -2.1434429715    -0.0000000000
C       0.6967964709    -1.2068868901    -0.0000000000
H       1.2375173766    -2.1434429715    -0.0000000000
$end

$rem
   JOB_TYPE  =  SP
   BASIS  =  general
   METHOD  =  EOM-CCSD
   CVS_EE_STATES = [5,5,5,5,5,5,5,5]
   EE_STATES = [0,0,0,0,0,3,3,3]
   eom_preconv_singles = true
   n_frozen_core = fc
   cc_trans_prop = 2
   use_libqints = 1   !use new int library (will be def in trunk)
   cc_memory = 100000
   EOM_DAVIDSON_MAX_ITER 200
   EOM_DAVIDSON_MAXVECTORS = 1000
   eom_davidson_convergence = 5
   !eom_shift = 10000
$end

$basis
H    0
6-311(2+,+)G**
****
C    0
S    1    1.000000
   4.56324000E+03    1.96665000E-03
S    1    1.000000
   6.82024000E+02    1.52306000E-02
S    1    1.000000
   1.54973000E+02    7.61269000E-02
S    1    1.000000
   4.44553000E+01    2.60801000E-01
S    1    1.000000
   1.30290000E+01    6.16462000E-01
S    1    1.000000
   1.82773000E+00    2.21006000E-01
SP   3    1.000000
   2.09642000E+01    1.14660000E-01   4.02487000E-02
   4.80331000E+00    9.19999000E-01   2.37594000E-01
   1.45933000E+00   -3.03068000E-03   8.15854000E-01
SP   1    1.000000
   4.83456000E-01    1.00000000E+00   1.00000000E+00
SP   1    1.000000
   1.45585000E-01    1.00000000E+00   1.00000000E+00
SP   1    1.000000
   4.38000000E-02    1.00000000E+00   1.00000000E+00
SP   1    1.000000
   1.31927711E-02    1.00000000E+00   1.00000000E+00
D    1    1.000000
   6.26000000E-01    1.00000000E+00
****
end

--------------------------------------------------------------
 ----------------------------------------------------------------
             Standard Nuclear Orientation (Angstroms)
    I     Atom           X                Y                Z
 ----------------------------------------------------------------
    1      H       2.4750347531     0.0000000000    -0.0000000000
    2      C       1.3935929418     0.0000000000    -0.0000000000
    3      C       0.6967964709     1.2068868901     0.0000000000
    4      H       1.2375173766     2.1434429715     0.0000000000
    5      C      -0.6967964709     1.2068868901     0.0000000000
    6      H      -1.2375173766     2.1434429715     0.0000000000
    7      C      -1.3935929418    -0.0000000000     0.0000000000
    8      H      -2.4750347531    -0.0000000000     0.0000000000
    9      C      -0.6967964709    -1.2068868901    -0.0000000000
   10      H      -1.2375173766    -2.1434429715    -0.0000000000
   11      C       0.6967964709    -1.2068868901    -0.0000000000
   12      H       1.2375173766    -2.1434429715    -0.0000000000
 ----------------------------------------------------------------
 Molecular Point Group                 D2h   NOp =  8
 Largest Abelian Subgroup              D2h   NOp =  8
 Nuclear Repulsion Energy =   203.7187449024 hartrees
 There are       21 alpha and       21 beta electrons

 Q-Chem warning in module forms1/BasisType.C, line 1685:

 Setting pure/cartesian flag to 2111 for general basis


 Requested basis set is non-standard
 There are 102 shells and 228 basis functions
MEM_TOTAL is adjusted to CC_MEMORY + MEM_STATIC!
 Total memory of 100192MB is distributed as follows: 
   QALLOC including MEM_STATIC uses 192MB
   MEM_STATIC is set to 192MB
   CCMAN JOB total memory use is  100000MB
 Warning: actual memory use might exceed 100192MB

 Total QAlloc Memory Limit    192 MB
 Mega-Array Size       188 MB
 MEM_STATIC part       192 MB

                       Distance Matrix (Angstroms)
             H (  1)   C (  2)   C (  3)   H (  4)   C (  5)   H (  6)
   C (  2)  1.081442
   C (  3)  2.149118  1.393593
   H (  4)  2.475035  2.149118  1.081442
   C (  5)  3.393684  2.413774  1.393593  2.149118
   H (  6)  4.286886  3.393684  2.149118  2.475035  1.081442
   C (  7)  3.868628  2.787186  2.413774  3.393684  1.393593  2.149118
   H (  8)  4.950070  3.868628  3.393684  4.286886  2.149118  2.475035
   C (  9)  3.393684  2.413774  2.787186  3.868628  2.413774  3.393684
   H ( 10)  4.286886  3.393684  3.868628  4.950070  3.393684  4.286886
   C ( 11)  2.149118  1.393593  2.413774  3.393684  2.787186  3.868628
   H ( 12)  2.475035  2.149118  3.393684  4.286886  3.868628  4.950070
             C (  7)   H (  8)   C (  9)   H ( 10)   C ( 11)
   H (  8)  1.081442
   C (  9)  1.393593  2.149118
   H ( 10)  2.149118  2.475035  1.081442
   C ( 11)  2.413774  3.393684  1.393593  2.149118
   H ( 12)  3.393684  4.286886  2.149118  2.475035  1.081442
 
 A cutoff of  1.0D-14 yielded   4632 shell pairs
 There are     25539 function pairs (     26958 Cartesian)
 
 -------------------------------------------------------
 OpenMP Integral Computing Module                       
 Release: version 1.0, May 2013, Q-Chem Inc. Pittsburgh 
 -------------------------------------------------------
 Integral Job Info:
 Integral job number is                      11
 Integral operator is                         1
 short-range coefficients                     0
 long-range coefficients              100000000
 Omega coefficients                           0
 if combine SR and LR in K                    0
 Integral screening is                        0
 Integral computing path is                   2
 max size of driver memory is            800000
 size of driver memory is                593474
 size of scratch memory is              1367512
 max col of scratch BK array               1296
 max len of scratch array in speh3          155
 max len of scratch index in speh4           18
 max int batch size is                      520
 min int batch size is                       52
 fixed nKL is                                52
 max L of basis functions is                  2
 order of int derivative is                   0
 number of shells is                        102
 number of basis is                         234
 number of cartesian basis is               234
 number of contracted shell pairs          4632
 number of primitive shell pairs           6390
 maxK2 (contraction) of shell pair            9
 max number of K2 of shell pair               1
 max number of CS2 of shell pair           1374
 max number of PS2 of shell pair           1374
 mem total for path MDJ                  537338
 -------------------------------------------------------
 Smallest overlap matrix eigenvalue = 9.20E-09
 Linear dependence detected in AO basis
 Number of orthogonalized atomic orbitals = 221
 Maximum deviation from orthogonality = 3.392E-10

 Scale SEOQF with 1.000000e-01/1.000000e-01/1.000000e-01

 Standard Electronic Orientation quadrupole field applied
 Nucleus-field energy     =     0.0000000057 hartrees
 Guess MOs from core Hamiltonian diagonalization

 -----------------------------------------------------------------------
  General SCF calculation program by
  Eric Jon Sundstrom, Paul Horn, Yuezhi Mao, Dmitri Zuev, Alec White,
  David Stuck, Shaama M.S., Shane Yost, Joonho Lee, David Small,
  Daniel Levine, Susi Lehtola, Hugh Burton, Evgeny Epifanovsky
 -----------------------------------------------------------------------
 Hartree-Fock
 A restricted SCF calculation will be
 performed using DIIS
 SCF converges when DIIS error is below 1.0e-08
 ---------------------------------------
  Cycle       Energy         DIIS error
 ---------------------------------------
    1    -184.2228632418      8.63e-02  
    2    -168.0386170415      4.46e-02  
    3    -221.1238641312      3.49e-02  
    4    -229.2582984431      1.38e-02  
    5    -230.5163601119      5.61e-03  
    6    -230.7362611878      1.60e-03  
    7    -230.7555322715      3.98e-04  
    8    -230.7567897872      6.28e-05  
    9    -230.7568463987      7.54e-06  
   10    -230.7568473318      2.77e-06  
   11    -230.7568474115      4.07e-07  
   12    -230.7568474145      9.52e-08  
   13    -230.7568474146      1.97e-08  
   14    -230.7568474146      3.00e-09  Convergence criterion met
 ---------------------------------------
 SCF time:   CPU 172.83s  wall 18.00s 
 SCF   energy in the final basis set =     -230.7568474146


 ------------------------------------------------------------------------------

   CCMAN2: suite of methods based on coupled cluster
           and equation of motion theories.

   Components:
   * libvmm-1.3-trunk
     by Evgeny Epifanovsky, Ilya Kaliman.
   * libtensor-2.5-trunk
     by Evgeny Epifanovsky, Michael Wormit, Dmitry Zuev, Sam Manzer, 
        Ilya Kaliman.
   * libcc-2.5-trunk
     by Evgeny Epifanovsky, Arik Landau, Tomasz Kus, Kirill Khistyaev, 
        Dmitry Zuev, Prashant Manohar, Xintian Feng, Anna Krylov, 
        Matthew Goldey, Alec White, Thomas Jagau, Kaushik Nanda, 
        Anastasia Gunina, Alexander Kunitsa, Joonho Lee.

   CCMAN original authors:
   Anna I. Krylov, C. David Sherrill, Steven R. Gwaltney,
   Edward F. C. Byrd (2000)
   Sergey V. Levchenko, Lyudmila V. Slipchenko, Tao Wang,
   Ana-Maria C. Cristian (2003)
   Piotr A. Pieniazek, C. Melania Oana, Evgeny Epifanovsky (2007)
   Prashant Manohar (2009)

 ------------------------------------------------------------------------------


 Calculation will run on 10 cores with 100000MB of RAM.

 
 Alpha MOs, Restricted
 -- Occupied --                  
-11.239 -11.239 -11.239 -11.237 -11.237 -11.237  -1.153  -1.017
  1 Ag    1 B3u   1 B2u   2 Ag    1 B1g   2 B3u   3 Ag    3 B3u                
 -1.017  -0.826  -0.826  -0.712  -0.645  -0.621  -0.590  -0.590
  2 B2u   4 Ag    2 B1g   5 Ag    4 B3u   3 B2u   5 B3u   4 B2u                
 -0.502  -0.496  -0.496  -0.337  -0.337
  1 B1u   6 Ag    3 B1g   1 B2g   1 B3g                                        
 -- Virtual --                   
  0.017   0.022   0.022   0.033   0.033   0.034   0.044   0.044
  7 Ag    6 B3u   5 B2u   8 Ag    4 B1g   2 B1u   2 B2g   2 B3g                
  0.049   0.054   0.056   0.056   0.057   0.067   0.067   0.069
  7 B3u   6 B2u   3 B1u   1 Au    9 Ag    8 B3u   7 B2u   3 B2g                
  0.070   0.070   0.084   0.093   0.093   0.103   0.103   0.114
 10 Ag    5 B1g  11 Ag    9 B3u   8 B2u  12 Ag    6 B1g   4 B1u                
  0.114   0.131   0.172   0.186   0.186   0.186   0.195   0.204
  2 Au   10 B3u   5 B1u   4 B2g   3 B3g   9 B2u  13 Ag   14 Ag                 
  0.204   0.225   0.225   0.225   0.237   0.239   0.239   0.247
  7 B1g  11 B3u  10 B2u   5 B2g  15 Ag    6 B1u   3 Au   16 Ag                 
  0.247   0.250   0.250   0.255   0.255   0.281   0.289   0.289
  8 B1g  12 B3u  11 B2u  13 B3u  12 B2u  14 B3u  17 Ag    9 B1g                
  0.303   0.338   0.374   0.413   0.426   0.426   0.454   0.454
 10 B1g  18 Ag    6 B2g  15 B3u  16 B3u  13 B2u  19 Ag   11 B1g                
  0.515   0.515   0.522   0.522   0.621   0.623   0.719   0.739
 20 Ag   12 B1g  17 B3u  14 B2u  21 Ag   15 B2u  18 B3u  19 B3u                
  0.739   0.751   0.752   0.758   0.758   0.785   0.785   0.822
 16 B2u   7 B1u  13 B1g  22 Ag   14 B1g   7 B2g   4 B3g  23 Ag                 
  0.836   0.836   0.891   0.896   0.939   0.939   0.960   0.960
  8 B1u   4 Au   20 B3u   8 B2g  21 B3u  17 B2u  24 Ag   15 B1g                
  0.976   1.016   1.016   1.063   1.063   1.108   1.110   1.110
 25 Ag   22 B3u  18 B2u  26 Ag   16 B1g  23 B3u  24 B3u  19 B2u                
  1.131   1.170   1.204   1.204   1.250   1.324   1.324   1.392
 17 B1g   9 B1u  27 Ag   18 B1g   5 B3g   9 B2g   6 B3g  10 B1u                
  1.392   1.475   1.561   1.720   1.789   1.794   1.794   1.829
  5 Au   25 B3u  28 Ag   20 B2u  29 Ag   26 B3u  21 B2u  10 B2g                
  1.848   1.848   1.910   1.910   1.933   1.933   1.993   2.056
 11 B1u   6 Au   19 B1g  30 Ag   22 B2u  27 B3u  12 B1u  11 B2g                
  2.056   2.109   2.109   2.132   2.239   2.239   2.239   2.253
  7 B3g  31 Ag   20 B1g  23 B2u  21 B1g   8 B3g  12 B2g  28 B3u                
  2.253   2.301   2.350   2.350   2.381   2.381   2.642   2.664
 24 B2u  29 B3u  22 B1g  32 Ag   13 B1u   7 Au   13 B2g   8 Au                 
  2.749   2.749   2.768   2.831   2.831   2.941   2.941   2.977
 33 Ag   23 B1g  34 Ag   30 B3u  25 B2u  26 B2u  31 B3u  35 Ag                 
  2.980   3.031   3.031   3.035   3.044   3.044   3.082   3.208
 32 B3u  33 B3u  27 B2u  34 B3u  36 Ag   24 B1g  14 B1u  14 B2g                
  3.208   3.268   3.302   3.302   3.339   3.339   3.487   3.557
  9 B3g  25 B1g  15 B1u   9 Au   37 Ag   26 B1g  15 B2g  28 B2u                
  3.775   3.775   3.912   3.912   3.938   4.074   4.397   4.397
 27 B1g  38 Ag   35 B3u  29 B2u  39 Ag   36 B3u  40 Ag   28 B1g                
  4.485   4.533   4.533   5.134   5.279   5.461   5.461   5.789
 37 B3u  38 B3u  30 B2u  41 Ag   29 B1g  39 B3u  31 B2u  42 Ag                 
  5.789   6.211  20.654  20.721  20.721  20.862  20.862  21.155
 30 B1g  40 B3u  43 Ag   41 B3u  32 B2u  44 Ag   31 B1g  42 B3u                
 80.225  80.296  80.296  80.416  80.416  80.640 322.068 322.132
 45 Ag   43 B3u  33 B2u  46 Ag   32 B1g  44 B3u  47 Ag   45 B3u                
322.132 322.234 322.234 322.4161431.6381431.6941431.6941431.781
 34 B2u  48 Ag   33 B1g  46 B3u  49 Ag   47 B3u  35 B2u  50 Ag                 
*******1431.9338749.8788749.9238749.9238749.9948749.9948750.117
 34 B1g  48 B3u  51 Ag   49 B3u  36 B2u  52 Ag   35 B1g  50 B3u                
 
 Beta MOs, Restricted
 -- Occupied --                  
-11.239 -11.239 -11.239 -11.237 -11.237 -11.237  -1.153  -1.017
  1 Ag    1 B3u   1 B2u   2 Ag    1 B1g   2 B3u   3 Ag    3 B3u                
 -1.017  -0.826  -0.826  -0.712  -0.645  -0.621  -0.590  -0.590
  2 B2u   4 Ag    2 B1g   5 Ag    4 B3u   3 B2u   5 B3u   4 B2u                
 -0.502  -0.496  -0.496  -0.337  -0.337
  1 B1u   6 Ag    3 B1g   1 B2g   1 B3g                                        
 -- Virtual --                   
  0.017   0.022   0.022   0.033   0.033   0.034   0.044   0.044
  7 Ag    6 B3u   5 B2u   8 Ag    4 B1g   2 B1u   2 B2g   2 B3g                
  0.049   0.054   0.056   0.056   0.057   0.067   0.067   0.069
  7 B3u   6 B2u   3 B1u   1 Au    9 Ag    8 B3u   7 B2u   3 B2g                
  0.070   0.070   0.084   0.093   0.093   0.103   0.103   0.114
 10 Ag    5 B1g  11 Ag    9 B3u   8 B2u  12 Ag    6 B1g   4 B1u                
  0.114   0.131   0.172   0.186   0.186   0.186   0.195   0.204
  2 Au   10 B3u   5 B1u   4 B2g   3 B3g   9 B2u  13 Ag   14 Ag                 
  0.204   0.225   0.225   0.225   0.237   0.239   0.239   0.247
  7 B1g  11 B3u  10 B2u   5 B2g  15 Ag    6 B1u   3 Au   16 Ag                 
  0.247   0.250   0.250   0.255   0.255   0.281   0.289   0.289
  8 B1g  12 B3u  11 B2u  13 B3u  12 B2u  14 B3u  17 Ag    9 B1g                
  0.303   0.338   0.374   0.413   0.426   0.426   0.454   0.454
 10 B1g  18 Ag    6 B2g  15 B3u  16 B3u  13 B2u  19 Ag   11 B1g                
  0.515   0.515   0.522   0.522   0.621   0.623   0.719   0.739
 20 Ag   12 B1g  17 B3u  14 B2u  21 Ag   15 B2u  18 B3u  19 B3u                
  0.739   0.751   0.752   0.758   0.758   0.785   0.785   0.822
 16 B2u   7 B1u  13 B1g  22 Ag   14 B1g   7 B2g   4 B3g  23 Ag                 
  0.836   0.836   0.891   0.896   0.939   0.939   0.960   0.960
  8 B1u   4 Au   20 B3u   8 B2g  21 B3u  17 B2u  24 Ag   15 B1g                
  0.976   1.016   1.016   1.063   1.063   1.108   1.110   1.110
 25 Ag   22 B3u  18 B2u  26 Ag   16 B1g  23 B3u  24 B3u  19 B2u                
  1.131   1.170   1.204   1.204   1.250   1.324   1.324   1.392
 17 B1g   9 B1u  27 Ag   18 B1g   5 B3g   9 B2g   6 B3g  10 B1u                
  1.392   1.475   1.561   1.720   1.789   1.794   1.794   1.829
  5 Au   25 B3u  28 Ag   20 B2u  29 Ag   26 B3u  21 B2u  10 B2g                
  1.848   1.848   1.910   1.910   1.933   1.933   1.993   2.056
 11 B1u   6 Au   19 B1g  30 Ag   22 B2u  27 B3u  12 B1u  11 B2g                
  2.056   2.109   2.109   2.132   2.239   2.239   2.239   2.253
  7 B3g  31 Ag   20 B1g  23 B2u  21 B1g   8 B3g  12 B2g  28 B3u                
  2.253   2.301   2.350   2.350   2.381   2.381   2.642   2.664
 24 B2u  29 B3u  22 B1g  32 Ag   13 B1u   7 Au   13 B2g   8 Au                 
  2.749   2.749   2.768   2.831   2.831   2.941   2.941   2.977
 33 Ag   23 B1g  34 Ag   30 B3u  25 B2u  26 B2u  31 B3u  35 Ag                 
  2.980   3.031   3.031   3.035   3.044   3.044   3.082   3.208
 32 B3u  33 B3u  27 B2u  34 B3u  36 Ag   24 B1g  14 B1u  14 B2g                
  3.208   3.268   3.302   3.302   3.339   3.339   3.487   3.557
  9 B3g  25 B1g  15 B1u   9 Au   37 Ag   26 B1g  15 B2g  28 B2u                
  3.775   3.775   3.912   3.912   3.938   4.074   4.397   4.397
 27 B1g  38 Ag   35 B3u  29 B2u  39 Ag   36 B3u  40 Ag   28 B1g                
  4.485   4.533   4.533   5.134   5.279   5.461   5.461   5.789
 37 B3u  38 B3u  30 B2u  41 Ag   29 B1g  39 B3u  31 B2u  42 Ag                 
  5.789   6.211  20.654  20.721  20.721  20.862  20.862  21.155
 30 B1g  40 B3u  43 Ag   41 B3u  32 B2u  44 Ag   31 B1g  42 B3u                
 80.225  80.296  80.296  80.416  80.416  80.640 322.068 322.132
 45 Ag   43 B3u  33 B2u  46 Ag   32 B1g  44 B3u  47 Ag   45 B3u                
322.132 322.234 322.234 322.4161431.6381431.6941431.6941431.781
 34 B2u  48 Ag   33 B1g  46 B3u  49 Ag   47 B3u  35 B2u  50 Ag                 
*******1431.9338749.8788749.9238749.9238749.9948749.9948750.117
 34 B1g  48 B3u  51 Ag   49 B3u  36 B2u  52 Ag   35 B1g  50 B3u                

 Occupation and symmetry of molecular orbitals

 Point group: D2h (8 irreducible representations).

                           Ag   B1g  B2g  B3g  Au   B1u  B2u  B3u   All 
 ------------------------------------------------------------------------
 All molecular orbitals:
  - Alpha                  52   35   15   9    9    15   36   50    221 
  - Beta                   52   35   15   9    9    15   36   50    221 
 ------------------------------------------------------------------------
 Alpha orbitals:
  - Frozen occupied        2    1    0    0    0    0    1    2     6   
  - Active occupied        4    2    1    1    0    1    3    3     15  
  - Active virtual         46   32   14   8    9    14   32   45    200 
  - Frozen virtual         0    0    0    0    0    0    0    0     0   
 ------------------------------------------------------------------------
 Beta orbitals:
  - Frozen occupied        2    1    0    0    0    0    1    2     6   
  - Active occupied        4    2    1    1    0    1    3    3     15  
  - Active virtual         46   32   14   8    9    14   32   45    200 
  - Frozen virtual         0    0    0    0    0    0    0    0     0   
 ------------------------------------------------------------------------

 Import integrals:   CPU 0.00 s  wall 0.00 s

 Import integrals:   CPU 902.98 s  wall 106.45 s

 MP2 amplitudes:   CPU 12.41 s  wall 10.52 s

           CCSD T amplitudes will be solved using DIIS.

           Start     Size      MaxIter   EConv     TConv     
           3         7         100       1.00e-06  1.00e-04  
 ------------------------------------------------------------------------------
           Energy (a.u.)   Ediff      Tdiff       Comment
 ------------------------------------------------------------------------------
          -231.59168049                           
     1    -231.59429820   2.62e-03   9.14e-01     
     2    -231.62000322   2.57e-02   1.24e-01     
     3    -231.62080522   8.02e-04   4.27e-02     
     4    -231.62331988   2.51e-03   1.33e-02     Switched to DIIS steps.
     5    -231.62422061   9.01e-04   1.12e-02     
     6    -231.62422923   8.61e-06   2.17e-03     
     7    -231.62422004   9.19e-06   6.74e-04     
     8    -231.62421970   3.45e-07   1.55e-04     
     9    -231.62421954   1.57e-07   3.98e-05     
 ------------------------------------------------------------------------------
          -231.62421954                           CCSD T converged.

 SCF energy                 = -230.75684741
 MP2 energy                 = -231.59168049
 CCSD correlation energy     =   -0.86737213
 CCSD total energy           = -231.62421954

 CCSD  T1^2 = 0.0065  T2^2 = 0.3405  Leading amplitudes:

 Amplitude    Orbitals with energies
 -0.0217       1 (B3g) A                 ->    4 (B3g) A                  
              -0.3371                          0.7850                     
 -0.0217       1 (B3g) B                 ->    4 (B3g) B                  
              -0.3371                          0.7850                     
  0.0217       1 (B2g) A                 ->    7 (B2g) A                  
              -0.3371                          0.7850                     
  0.0217       1 (B2g) B                 ->    7 (B2g) B                  
              -0.3371                          0.7850                     

 Amplitude    Orbitals with energies
 -0.0672       1 (B2g) A     1 (B2g) B   ->    4 (B1u) A     4 (B1u) B    
              -0.3371       -0.3371            0.1142        0.1142       
  0.0672       1 (B2g) A     1 (B2g) B   ->    4 (B1u) B     4 (B1u) A    
              -0.3371       -0.3371            0.1142        0.1142       
  0.0672       1 (B2g) B     1 (B2g) A   ->    4 (B1u) A     4 (B1u) B    
              -0.3371       -0.3371            0.1142        0.1142       
 -0.0672       1 (B2g) B     1 (B2g) A   ->    4 (B1u) B     4 (B1u) A    
              -0.3371       -0.3371            0.1142        0.1142       
 -0.0672       1 (B3g) A     1 (B3g) B   ->    2 (Au) A      2 (Au) B     
              -0.3371       -0.3371            0.1142        0.1142       
  0.0672       1 (B3g) A     1 (B3g) B   ->    2 (Au) B      2 (Au) A     
              -0.3371       -0.3371            0.1142        0.1142       
  0.0672       1 (B3g) B     1 (B3g) A   ->    2 (Au) A      2 (Au) B     
              -0.3371       -0.3371            0.1142        0.1142       
 -0.0672       1 (B3g) B     1 (B3g) A   ->    2 (Au) B      2 (Au) A     
              -0.3371       -0.3371            0.1142        0.1142       

 Computing CCSD intermediates for later calculations
 Finished.

           CCSD Lambda amplitudes will be solved using DIIS.
           Start     Size      MaxIter   EConv     LConv     
           3         7         100       1.00e-06  1.00e-04  
 ------------------------------------------------------------------------------
            Enorm      Ldiff       Comment
 ------------------------------------------------------------------------------
     1     5.34e-02   4.37e-02     
     2     8.85e-03   5.93e-04     
     3     3.02e-03   1.80e-03     
     4     1.12e-03   2.47e-04     Switched to DIIS steps.
     5     3.20e-04   3.08e-04     
     6     1.00e-04   6.30e-05     
     7     3.17e-05   1.73e-05     
     8     8.54e-06   4.74e-06     
     9     2.67e-06   8.93e-07     
    10     9.05e-07   2.19e-07     
 ------------------------------------------------------------------------------
                                   CCSD Lambda converged.

 CCSD calculation:   CPU 865.45 s  wall 151.78 s

        Solving for EOMEE-CCSD B1u singlet states.

       EOMEE-CCSD-SINGLES right amplitudes will be solved using Davidson.
        Amplitudes will be solved using standard  algorithm.
     Hard-coded thresholds: 
     LinDepThresh=1.00e-15  NormThresh=1.00e-06  ReorthogonThresh=1.00e-02

      Roots     MaxVec    MaxIter   Precond   Conv      Shift    
      3         1000      200       1         1.00e-05  0.00e+00  
 ------------------------------------------------------------------------------
      Iter ConvRoots NVecs ResNorm Current eigenvalues (eV)
 ------------------------------------------------------------------------------
      0    0      3     5.47e-04   9.6831   9.7288   10.6983   
      1    0      6     2.95e-02   9.4075   9.5093   10.6282   
      2    0      9     4.66e-03   9.1832   9.3478   10.5757   
      3    0      12    1.11e-03   9.1707   9.3399   10.5717   
      4    0      15    2.99e-04   9.1700   9.3392   10.5714   
      5    1      18    1.22e-04   9.1700*  9.3391   10.5711   
      6    2      20    1.02e-04   9.1700*  9.3391*  10.5708   
      7    2      21    3.38e-04   9.1700*  9.3391*  10.5705   
      8    2      22    4.22e-03   9.1700*  9.3391*  10.5688   
      9    2      23    1.01e-02   9.1700*  9.3391*  10.5613   
      10   2      24    5.13e-03   9.1700*  9.3391*  10.5547   
      11   2      25    3.82e-04   9.1700*  9.3391*  10.5525   
      12   2      26    4.09e-05   9.1700*  9.3391*  10.5523   
      13   3      27    3.65e-06   9.1700*  9.3391*  10.5523*  

     Davidson procedure converged

 EOMEE transition 1/B1u
 Total energy = -231.28722891 a.u.  Excitation energy = 9.1700 eV.
 R1^2 = 1.0000  Res^2 = 4.61e-06
 Conv-d = yes

 Amplitude    Transitions between orbitals
  0.4049       1 (B3g) A                 ->    5 (B2u) A                  
  0.4049       1 (B3g) B                 ->    5 (B2u) B                  
 -0.4049       1 (B2g) A                 ->    6 (B3u) A                  
 -0.4049       1 (B2g) B                 ->    6 (B3u) B                  
  0.1904       1 (B3g) A                 ->    7 (B2u) A                  
  0.1904       1 (B3g) B                 ->    7 (B2u) B                  
 -0.1904       1 (B2g) A                 ->    8 (B3u) A                  
 -0.1904       1 (B2g) B                 ->    8 (B3u) B                  
 -0.1878       1 (B3g) A                 ->    8 (B2u) A                  
 -0.1878       1 (B3g) B                 ->    8 (B2u) B                  
  0.1878       1 (B2g) A                 ->    9 (B3u) A                  
  0.1878       1 (B2g) B                 ->    9 (B3u) B                  

              Summary of significant orbitals:

               Number  Type             Irrep      Energy
               20      Occ  Alpha       1 (B2g)     -0.3371
               21      Occ  Alpha       1 (B3g)     -0.3371
               20      Occ  Beta        1 (B2g)     -0.3371
               21      Occ  Beta        1 (B3g)     -0.3371
               24      Vir  Alpha       5 (B2u)      0.0216
               36      Vir  Alpha       7 (B2u)      0.0667
               42      Vir  Alpha       8 (B2u)      0.0928
               23      Vir  Alpha       6 (B3u)      0.0216
               35      Vir  Alpha       8 (B3u)      0.0667
               41      Vir  Alpha       9 (B3u)      0.0928
               24      Vir  Beta        5 (B2u)      0.0216
               36      Vir  Beta        7 (B2u)      0.0667
               42      Vir  Beta        8 (B2u)      0.0928
               23      Vir  Beta        6 (B3u)      0.0216
               35      Vir  Beta        8 (B3u)      0.0667
               41      Vir  Beta        9 (B3u)      0.0928


 EOMEE transition 2/B1u
 Total energy = -231.28101254 a.u.  Excitation energy = 9.3391 eV.
 R1^2 = 1.0000  Res^2 = 1.74e-07
 Conv-d = yes

 Amplitude    Transitions between orbitals
 -0.4240       1 (B2g) A                 ->    6 (B3u) A                  
 -0.4240       1 (B2g) B                 ->    6 (B3u) B                  
 -0.4240       1 (B3g) A                 ->    5 (B2u) A                  
 -0.4240       1 (B3g) B                 ->    5 (B2u) B                  
 -0.1869       1 (B2g) A                 ->    8 (B3u) A                  
 -0.1869       1 (B2g) B                 ->    8 (B3u) B                  
 -0.1869       1 (B3g) A                 ->    7 (B2u) A                  
 -0.1869       1 (B3g) B                 ->    7 (B2u) B                  
  0.1616       1 (B2g) A                 ->    9 (B3u) A                  
  0.1616       1 (B2g) B                 ->    9 (B3u) B                  
  0.1616       1 (B3g) A                 ->    8 (B2u) A                  
  0.1616       1 (B3g) B                 ->    8 (B2u) B                  

              Summary of significant orbitals:

               Number  Type             Irrep      Energy
               20      Occ  Alpha       1 (B2g)     -0.3371
               21      Occ  Alpha       1 (B3g)     -0.3371
               20      Occ  Beta        1 (B2g)     -0.3371
               21      Occ  Beta        1 (B3g)     -0.3371
               24      Vir  Alpha       5 (B2u)      0.0216
               36      Vir  Alpha       7 (B2u)      0.0667
               42      Vir  Alpha       8 (B2u)      0.0928
               23      Vir  Alpha       6 (B3u)      0.0216
               35      Vir  Alpha       8 (B3u)      0.0667
               41      Vir  Alpha       9 (B3u)      0.0928
               24      Vir  Beta        5 (B2u)      0.0216
               36      Vir  Beta        7 (B2u)      0.0667
               42      Vir  Beta        8 (B2u)      0.0928
               23      Vir  Beta        6 (B3u)      0.0216
               35      Vir  Beta        8 (B3u)      0.0667
               41      Vir  Beta        9 (B3u)      0.0928


 EOMEE transition 3/B1u
 Total energy = -231.23643025 a.u.  Excitation energy = 10.5523 eV.
 R1^2 = 1.0000  Res^2 = 6.17e-06
 Conv-d = yes

 Amplitude    Transitions between orbitals
  0.6533       1 (B3g) A                 ->    6 (B2u) A                  
  0.6533       1 (B3g) B                 ->    6 (B2u) B                  
  0.1474       1 (B3g) A                 ->    9 (B2u) A                  
  0.1474       1 (B3g) B                 ->    9 (B2u) B                  
  0.1246       1 (B2g) A                 ->    7 (B3u) A                  
  0.1246       1 (B2g) B                 ->    7 (B3u) B                  

              Summary of significant orbitals:

               Number  Type             Irrep      Energy
               20      Occ  Alpha       1 (B2g)     -0.3371
               21      Occ  Alpha       1 (B3g)     -0.3371
               20      Occ  Beta        1 (B2g)     -0.3371
               21      Occ  Beta        1 (B3g)     -0.3371
               31      Vir  Alpha       6 (B2u)      0.0544
               51      Vir  Alpha       9 (B2u)      0.1857
               30      Vir  Alpha       7 (B3u)      0.0487
               31      Vir  Beta        6 (B2u)      0.0544
               51      Vir  Beta        9 (B2u)      0.1857
               30      Vir  Beta        7 (B3u)      0.0487


        EOMEE-CCSD/MP2 right amplitudes will be solved using Davidson.
        Amplitudes will be solved using standard  algorithm.
     Hard-coded thresholds: 
     LinDepThresh=1.00e-15  NormThresh=1.00e-06  ReorthogonThresh=1.00e-02

      Roots     MaxVec    MaxIter   Precond   Conv      Shift    
      3         1000      200       1         1.00e-05  0.00e+00  
 ------------------------------------------------------------------------------
      Iter ConvRoots NVecs ResNorm Current eigenvalues (eV)
 ------------------------------------------------------------------------------
      0    0      3     9.82e-02   9.1700   9.3391   10.5523   
      1    0      6     4.87e+01   7.6640   7.7978   9.2083   
      2    0      9     7.54e-01   7.0243   7.1036   8.4223   
      3    0      12    1.68e-02   6.9762   7.0548   8.3782   
      4    0      15    7.50e-03   6.9697   7.0465   8.3740   
      5    0      18    5.57e-03   6.9679   7.0427   8.3730   
      6    0      21    3.34e-04   6.9675   7.0421   8.3725   
      7    0      24    1.13e-04   6.9675   7.0420   8.3726   
      8    0      27    9.70e-05   6.9675   7.0420   8.3724   
      9    2      30    6.36e-05   6.9674*  7.0419*  8.3721   
      10   2      31    6.09e-06   6.9674*  7.0419*  8.3719   
      11   2      32    4.29e-05   6.9674*  7.0419*  8.3718   
      12   2      33    4.39e-06   6.9674*  7.0419*  8.3716   
      13   3      34    1.83e-06   6.9674*  7.0419*  8.3715*  

     Davidson procedure converged

 EOMEE transition 1/B1u
 Total energy = -231.36817076 a.u.  Excitation energy = 6.9674 eV.
 R0^2 = 0.0000  R1^2 = 0.9397  R2^2 = 0.0603  Res^2 = 9.89e-07
 Conv-d = yes

 Amplitude    Transitions between orbitals
 -0.3827       1 (B3g) A                 ->    5 (B2u) A                  
 -0.3827       1 (B3g) B                 ->    5 (B2u) B                  
  0.3827       1 (B2g) A                 ->    6 (B3u) A                  
  0.3827       1 (B2g) B                 ->    6 (B3u) B                  
  0.2022       1 (B3g) A                 ->    8 (B2u) A                  
  0.2022       1 (B3g) B                 ->    8 (B2u) B                  
 -0.2022       1 (B2g) A                 ->    9 (B3u) A                  
 -0.2022       1 (B2g) B                 ->    9 (B3u) B                  
  0.1877       1 (B2g) A                 ->    8 (B3u) A                  
  0.1877       1 (B2g) B                 ->    8 (B3u) B                  
 -0.1877       1 (B3g) A                 ->    7 (B2u) A                  
 -0.1877       1 (B3g) B                 ->    7 (B2u) B                  

              Summary of significant orbitals:

               Number  Type             Irrep      Energy
               20      Occ  Alpha       1 (B2g)     -0.3371
               21      Occ  Alpha       1 (B3g)     -0.3371
               20      Occ  Beta        1 (B2g)     -0.3371
               21      Occ  Beta        1 (B3g)     -0.3371
               24      Vir  Alpha       5 (B2u)      0.0216
               36      Vir  Alpha       7 (B2u)      0.0667
               42      Vir  Alpha       8 (B2u)      0.0928
               23      Vir  Alpha       6 (B3u)      0.0216
               35      Vir  Alpha       8 (B3u)      0.0667
               41      Vir  Alpha       9 (B3u)      0.0928
               24      Vir  Beta        5 (B2u)      0.0216
               36      Vir  Beta        7 (B2u)      0.0667
               42      Vir  Beta        8 (B2u)      0.0928
               23      Vir  Beta        6 (B3u)      0.0216
               35      Vir  Beta        8 (B3u)      0.0667
               41      Vir  Beta        9 (B3u)      0.0928


 EOMEE transition 2/B1u
 Total energy = -231.36543346 a.u.  Excitation energy = 7.0419 eV.
 R0^2 = 0.0000  R1^2 = 0.9358  R2^2 = 0.0642  Res^2 = 1.24e-06
 Conv-d = yes

 Amplitude    Transitions between orbitals
  0.3888       1 (B2g) A                 ->    6 (B3u) A                  
  0.3888       1 (B2g) B                 ->    6 (B3u) B                  
  0.3888       1 (B3g) A                 ->    5 (B2u) A                  
  0.3888       1 (B3g) B                 ->    5 (B2u) B                  
 -0.1924       1 (B2g) A                 ->    9 (B3u) A                  
 -0.1924       1 (B2g) B                 ->    9 (B3u) B                  
 -0.1924       1 (B3g) A                 ->    8 (B2u) A                  
 -0.1924       1 (B3g) B                 ->    8 (B2u) B                  
  0.1897       1 (B2g) A                 ->    8 (B3u) A                  
  0.1897       1 (B2g) B                 ->    8 (B3u) B                  
  0.1897       1 (B3g) A                 ->    7 (B2u) A                  
  0.1897       1 (B3g) B                 ->    7 (B2u) B                  

              Summary of significant orbitals:

               Number  Type             Irrep      Energy
               20      Occ  Alpha       1 (B2g)     -0.3371
               21      Occ  Alpha       1 (B3g)     -0.3371
               20      Occ  Beta        1 (B2g)     -0.3371
               21      Occ  Beta        1 (B3g)     -0.3371
               24      Vir  Alpha       5 (B2u)      0.0216
               36      Vir  Alpha       7 (B2u)      0.0667
               42      Vir  Alpha       8 (B2u)      0.0928
               23      Vir  Alpha       6 (B3u)      0.0216
               35      Vir  Alpha       8 (B3u)      0.0667
               41      Vir  Alpha       9 (B3u)      0.0928
               24      Vir  Beta        5 (B2u)      0.0216
               36      Vir  Beta        7 (B2u)      0.0667
               42      Vir  Beta        8 (B2u)      0.0928
               23      Vir  Beta        6 (B3u)      0.0216
               35      Vir  Beta        8 (B3u)      0.0667
               41      Vir  Beta        9 (B3u)      0.0928


 EOMEE transition 3/B1u
 Total energy = -231.31657273 a.u.  Excitation energy = 8.3715 eV.
 R0^2 = 0.0000  R1^2 = 0.9388  R2^2 = 0.0612  Res^2 = 3.26e-06
 Conv-d = yes

 Amplitude    Transitions between orbitals
 -0.6419       1 (B3g) A                 ->    6 (B2u) A                  
 -0.6419       1 (B3g) B                 ->    6 (B2u) B                  
 -0.1791       1 (B3g) A                 ->    9 (B2u) A                  
 -0.1791       1 (B3g) B                 ->    9 (B2u) B                  
 -0.1234       1 (B2g) A                 ->    7 (B3u) A                  
 -0.1234       1 (B2g) B                 ->    7 (B3u) B                  

              Summary of significant orbitals:

               Number  Type             Irrep      Energy
               20      Occ  Alpha       1 (B2g)     -0.3371
               21      Occ  Alpha       1 (B3g)     -0.3371
               20      Occ  Beta        1 (B2g)     -0.3371
               21      Occ  Beta        1 (B3g)     -0.3371
               31      Vir  Alpha       6 (B2u)      0.0544
               51      Vir  Alpha       9 (B2u)      0.1857
               30      Vir  Alpha       7 (B3u)      0.0487
               31      Vir  Beta        6 (B2u)      0.0544
               51      Vir  Beta        9 (B2u)      0.1857
               30      Vir  Beta        7 (B3u)      0.0487


      EOM-CCSD/MP2 left amplitudes will be solved using Davidson.
        Amplitudes will be solved using MOM  algorithm.
     Hard-coded thresholds: 
     LinDepThresh=1.00e-15  NormThresh=1.00e-06  ReorthogonThresh=1.00e-02

      Roots     MaxVec    MaxIter   Precond   Conv      Shift    
      3         1000      200       1         1.00e-05  0.00e+00  
 ------------------------------------------------------------------------------
      Iter ConvRoots NVecs ResNorm Current eigenvalues (eV)
 ------------------------------------------------------------------------------
      0    0      3     2.98e-03   6.9674   7.0419   8.3715   
      1    0      6     3.20e+00   6.9674   7.0419   8.3715   
      2    0      9     5.94e-03   6.9675   7.0419   8.3715   
      3    0      12    5.37e-04   6.9675   7.0419   8.3715   
      4    1      15    2.99e-05   6.9675   7.0419   8.3715*  
      5    3      17    5.55e-06   6.9675*  7.0419*  8.3715*  

     Davidson procedure converged

        Solving for EOMEE-CCSD B2u singlet states.

       EOMEE-CCSD-SINGLES right amplitudes will be solved using Davidson.
        Amplitudes will be solved using standard  algorithm.
     Hard-coded thresholds: 
     LinDepThresh=1.00e-15  NormThresh=1.00e-06  ReorthogonThresh=1.00e-02

      Roots     MaxVec    MaxIter   Precond   Conv      Shift    
      3         1000      200       1         1.00e-05  0.00e+00  
 ------------------------------------------------------------------------------
      Iter ConvRoots NVecs ResNorm Current eigenvalues (eV)
 ------------------------------------------------------------------------------
      0    0      3     5.52e-04   9.5935   10.6606   10.6836   
      1    0      6     8.24e-03   9.4928   10.5976   10.6469   
      2    0      9     7.63e-03   9.3937   9.7240   10.5312   
      3    0      12    7.96e-03   9.3135   9.3892   10.4525   
      4    0      15    2.24e-03   9.3005   9.3891   10.4348   
      5    1      18    2.00e-04   9.3005   9.3891*  10.4337   
      6    2      20    7.34e-06   9.3005*  9.3891*  10.4337   
      7    3      21    1.27e-06   9.3005*  9.3891*  10.4337*  

     Davidson procedure converged

 EOMEE transition 1/B2u
 Total energy = -231.28243284 a.u.  Excitation energy = 9.3005 eV.
 R1^2 = 1.0000  Res^2 = 1.96e-06
 Conv-d = yes

 Amplitude    Transitions between orbitals
  0.4725       1 (B3g) A                 ->    4 (B1u) A                  
  0.4725       1 (B3g) B                 ->    4 (B1u) B                  
 -0.4725       1 (B2g) A                 ->    2 (Au) A                   
 -0.4725       1 (B2g) B                 ->    2 (Au) B                   
  0.1381       1 (B3g) A                 ->    3 (B1u) A                  
  0.1381       1 (B3g) B                 ->    3 (B1u) B                  
  0.1381       1 (B2g) A                 ->    1 (Au) A                   
  0.1381       1 (B2g) B                 ->    1 (Au) B                   

              Summary of significant orbitals:

               Number  Type             Irrep      Energy
               20      Occ  Alpha       1 (B2g)     -0.3371
               21      Occ  Alpha       1 (B3g)     -0.3371
               20      Occ  Beta        1 (B2g)     -0.3371
               21      Occ  Beta        1 (B3g)     -0.3371
               33      Vir  Alpha       1 (Au)      0.0555
               46      Vir  Alpha       2 (Au)      0.1142
               32      Vir  Alpha       3 (B1u)      0.0555
               45      Vir  Alpha       4 (B1u)      0.1142
               33      Vir  Beta        1 (Au)      0.0555
               46      Vir  Beta        2 (Au)      0.1142
               32      Vir  Beta        3 (B1u)      0.0555
               45      Vir  Beta        4 (B1u)      0.1142


 EOMEE transition 2/B2u
 Total energy = -231.27917592 a.u.  Excitation energy = 9.3891 eV.
 R1^2 = 1.0000  Res^2 = 1.42e-06
 Conv-d = yes

 Amplitude    Transitions between orbitals
  0.6749       1 (B3g) A                 ->    2 (B1u) A                  
  0.6749       1 (B3g) B                 ->    2 (B1u) B                  
 -0.1902       1 (B3g) A                 ->    5 (B1u) A                  
 -0.1902       1 (B3g) B                 ->    5 (B1u) B                  

              Summary of significant orbitals:

               Number  Type             Irrep      Energy
               21      Occ  Alpha       1 (B3g)     -0.3371
               21      Occ  Beta        1 (B3g)     -0.3371
               27      Vir  Alpha       2 (B1u)      0.0344
               48      Vir  Alpha       5 (B1u)      0.1722
               27      Vir  Beta        2 (B1u)      0.0344
               48      Vir  Beta        5 (B1u)      0.1722


 EOMEE transition 3/B2u
 Total energy = -231.24078811 a.u.  Excitation energy = 10.4337 eV.
 R1^2 = 1.0000  Res^2 = 4.25e-07
 Conv-d = yes

 Amplitude    Transitions between orbitals
  0.3995       1 (B3g) A                 ->    3 (B1u) A                  
  0.3995       1 (B3g) B                 ->    3 (B1u) B                  
 -0.3995       1 (B2g) A                 ->    1 (Au) A                   
 -0.3995       1 (B2g) B                 ->    1 (Au) B                   
  0.2836       1 (B2g) A                 ->    2 (Au) A                   
  0.2836       1 (B2g) B                 ->    2 (Au) B                   
  0.2836       1 (B3g) A                 ->    4 (B1u) A                  
  0.2836       1 (B3g) B                 ->    4 (B1u) B                  

              Summary of significant orbitals:

               Number  Type             Irrep      Energy
               20      Occ  Alpha       1 (B2g)     -0.3371
               21      Occ  Alpha       1 (B3g)     -0.3371
               20      Occ  Beta        1 (B2g)     -0.3371
               21      Occ  Beta        1 (B3g)     -0.3371
               33      Vir  Alpha       1 (Au)      0.0555
               46      Vir  Alpha       2 (Au)      0.1142
               32      Vir  Alpha       3 (B1u)      0.0555
               45      Vir  Alpha       4 (B1u)      0.1142
               33      Vir  Beta        1 (Au)      0.0555
               46      Vir  Beta        2 (Au)      0.1142
               32      Vir  Beta        3 (B1u)      0.0555
               45      Vir  Beta        4 (B1u)      0.1142


        EOMEE-CCSD/MP2 right amplitudes will be solved using Davidson.
        Amplitudes will be solved using standard  algorithm.
     Hard-coded thresholds: 
     LinDepThresh=1.00e-15  NormThresh=1.00e-06  ReorthogonThresh=1.00e-02

      Roots     MaxVec    MaxIter   Precond   Conv      Shift    
      3         1000      200       1         1.00e-05  0.00e+00  
 ------------------------------------------------------------------------------
      Iter ConvRoots NVecs ResNorm Current eigenvalues (eV)
 ------------------------------------------------------------------------------
      0    0      3     1.53e-01   9.3005   9.3891   10.4337   
      1    0      6     1.56e+01   6.8735   7.7992   8.7496   
      2    0      9     8.34e-01   5.4119   7.2391   7.9164   
      3    0      12    5.66e-02   5.2275   7.1852   7.7738   
      4    0      15    1.41e-01   5.2130   7.1693   7.6702   
      5    0      18    2.51e-02   5.2094   7.1610   7.6006   
      6    0      21    3.31e-03   5.2091   7.1586   7.5775   
      7    0      24    8.62e-04   5.2094   7.1585   7.5773   
      8    0      27    4.85e-05   5.2093   7.1585   7.5772   
      9    2      30    8.08e-06   5.2093*  7.1585*  7.5770   
      10   3      31    4.34e-06   5.2093*  7.1584*  7.5769*  

     Davidson procedure converged

 EOMEE transition 1/B2u
 Total energy = -231.43278021 a.u.  Excitation energy = 5.2093 eV.
 R0^2 = 0.0000  R1^2 = 0.8975  R2^2 = 0.1025  Res^2 = 7.05e-07
 Conv-d = yes

 Amplitude    Transitions between orbitals
  0.4423       1 (B2g) A                 ->    2 (Au) A                   
  0.4423       1 (B2g) B                 ->    2 (Au) B                   
 -0.4423       1 (B3g) A                 ->    4 (B1u) A                  
 -0.4423       1 (B3g) B                 ->    4 (B1u) B                  
  0.1465       1 (B3g) A                 ->    6 (B1u) A                  
  0.1465       1 (B3g) B                 ->    6 (B1u) B                  
 -0.1465       1 (B2g) A                 ->    3 (Au) A                   
 -0.1465       1 (B2g) B                 ->    3 (Au) B                   

              Summary of significant orbitals:

               Number  Type             Irrep      Energy
               20      Occ  Alpha       1 (B2g)     -0.3371
               21      Occ  Alpha       1 (B3g)     -0.3371
               20      Occ  Beta        1 (B2g)     -0.3371
               21      Occ  Beta        1 (B3g)     -0.3371
               46      Vir  Alpha       2 (Au)      0.1142
               60      Vir  Alpha       3 (Au)      0.2392
               45      Vir  Alpha       4 (B1u)      0.1142
               59      Vir  Alpha       6 (B1u)      0.2392
               46      Vir  Beta        2 (Au)      0.1142
               60      Vir  Beta        3 (Au)      0.2392
               45      Vir  Beta        4 (B1u)      0.1142
               59      Vir  Beta        6 (B1u)      0.2392


 EOMEE transition 2/B2u
 Total energy = -231.36115160 a.u.  Excitation energy = 7.1584 eV.
 R0^2 = 0.0000  R1^2 = 0.9367  R2^2 = 0.0633  Res^2 = 2.95e-06
 Conv-d = yes

 Amplitude    Transitions between orbitals
  0.5892       1 (B3g) A                 ->    2 (B1u) A                  
  0.5892       1 (B3g) B                 ->    2 (B1u) B                  
 -0.2187       1 (B3g) A                 ->    5 (B1u) A                  
 -0.2187       1 (B3g) B                 ->    5 (B1u) B                  
 -0.1748       1 (B3g) A                 ->    4 (B1u) A                  
 -0.1748       1 (B3g) B                 ->    4 (B1u) B                  
 -0.1748       1 (B2g) A                 ->    2 (Au) A                   
 -0.1748       1 (B2g) B                 ->    2 (Au) B                   

              Summary of significant orbitals:

               Number  Type             Irrep      Energy
               20      Occ  Alpha       1 (B2g)     -0.3371
               21      Occ  Alpha       1 (B3g)     -0.3371
               20      Occ  Beta        1 (B2g)     -0.3371
               21      Occ  Beta        1 (B3g)     -0.3371
               46      Vir  Alpha       2 (Au)      0.1142
               27      Vir  Alpha       2 (B1u)      0.0344
               45      Vir  Alpha       4 (B1u)      0.1142
               48      Vir  Alpha       5 (B1u)      0.1722
               46      Vir  Beta        2 (Au)      0.1142
               27      Vir  Beta        2 (B1u)      0.0344
               45      Vir  Beta        4 (B1u)      0.1142
               48      Vir  Beta        5 (B1u)      0.1722


 EOMEE transition 3/B2u
 Total energy = -231.34577197 a.u.  Excitation energy = 7.5769 eV.
 R0^2 = 0.0000  R1^2 = 0.9331  R2^2 = 0.0669  Res^2 = 9.36e-06
 Conv-d = yes

 Amplitude    Transitions between orbitals
 -0.4028       1 (B3g) A                 ->    4 (B1u) A                  
 -0.4028       1 (B3g) B                 ->    4 (B1u) B                  
 -0.4028       1 (B2g) A                 ->    2 (Au) A                   
 -0.4028       1 (B2g) B                 ->    2 (Au) B                   
 -0.2681       1 (B3g) A                 ->    2 (B1u) A                  
 -0.2681       1 (B3g) B                 ->    2 (B1u) B                  
  0.1442       1 (B2g) A                 ->    1 (Au) A                   
  0.1442       1 (B2g) B                 ->    1 (Au) B                   
 -0.1442       1 (B3g) A                 ->    3 (B1u) A                  
 -0.1442       1 (B3g) B                 ->    3 (B1u) B                  

              Summary of significant orbitals:

               Number  Type             Irrep      Energy
               20      Occ  Alpha       1 (B2g)     -0.3371
               21      Occ  Alpha       1 (B3g)     -0.3371
               20      Occ  Beta        1 (B2g)     -0.3371
               21      Occ  Beta        1 (B3g)     -0.3371
               33      Vir  Alpha       1 (Au)      0.0555
               46      Vir  Alpha       2 (Au)      0.1142
               27      Vir  Alpha       2 (B1u)      0.0344
               32      Vir  Alpha       3 (B1u)      0.0555
               45      Vir  Alpha       4 (B1u)      0.1142
               33      Vir  Beta        1 (Au)      0.0555
               46      Vir  Beta        2 (Au)      0.1142
               27      Vir  Beta        2 (B1u)      0.0344
               32      Vir  Beta        3 (B1u)      0.0555
               45      Vir  Beta        4 (B1u)      0.1142


      EOM-CCSD/MP2 left amplitudes will be solved using Davidson.
        Amplitudes will be solved using MOM  algorithm.
     Hard-coded thresholds: 
     LinDepThresh=1.00e-15  NormThresh=1.00e-06  ReorthogonThresh=1.00e-02

      Roots     MaxVec    MaxIter   Precond   Conv      Shift    
      3         1000      200       1         1.00e-05  0.00e+00  
 ------------------------------------------------------------------------------
      Iter ConvRoots NVecs ResNorm Current eigenvalues (eV)
 ------------------------------------------------------------------------------
      0    0      3     5.21e-03   5.2093   7.1584   7.5769   
      1    0      6     4.13e+00   5.2093   7.1584   7.5769   
      2    0      9     2.34e-02   5.2093   7.1584   7.5769   
      3    0      12    4.26e-04   5.2093   7.1584   7.5769   
      4    0      15    4.71e-05   5.2093   7.1584   7.5769   
      5    2      18    1.04e-05   5.2093*  7.1584*  7.5769   
      6    3      19    8.44e-07   5.2093*  7.1584*  7.5769*  

     Davidson procedure converged

        Solving for EOMEE-CCSD B3u singlet states.

       EOMEE-CCSD-SINGLES right amplitudes will be solved using Davidson.
        Amplitudes will be solved using standard  algorithm.
     Hard-coded thresholds: 
     LinDepThresh=1.00e-15  NormThresh=1.00e-06  ReorthogonThresh=1.00e-02

      Roots     MaxVec    MaxIter   Precond   Conv      Shift    
      3         1000      200       1         1.00e-05  0.00e+00  
 ------------------------------------------------------------------------------
      Iter ConvRoots NVecs ResNorm Current eigenvalues (eV)
 ------------------------------------------------------------------------------
      0    0      3     6.01e-04   9.5935   10.6631   10.6836   
      1    0      6     1.12e-02   9.4928   10.6282   10.6469   
      2    0      9     9.02e-03   9.3937   10.0306   10.5312   
      3    0      12    1.17e-02   9.3892   9.4119   10.4525   
      4    0      15    3.23e-03   9.3515   9.3891   10.4348   
      5    1      18    2.95e-04   9.3502   9.3891*  10.4337   
      6    1      20    3.27e-05   9.3502   9.3891*  10.4337   
      7    3      22    3.31e-06   9.3502*  9.3891*  10.4337*  

     Davidson procedure converged

 EOMEE transition 1/B3u
 Total energy = -231.28060716 a.u.  Excitation energy = 9.3502 eV.
 R1^2 = 1.0000  Res^2 = 8.07e-06
 Conv-d = yes

 Amplitude    Transitions between orbitals
  0.4634       1 (B2g) A                 ->    4 (B1u) A                  
  0.4634       1 (B2g) B                 ->    4 (B1u) B                  
  0.4634       1 (B3g) A                 ->    2 (Au) A                   
  0.4634       1 (B3g) B                 ->    2 (Au) B                   
  0.1428       1 (B2g) A                 ->    3 (B1u) A                  
  0.1428       1 (B2g) B                 ->    3 (B1u) B                  
 -0.1428       1 (B3g) A                 ->    1 (Au) A                   
 -0.1428       1 (B3g) B                 ->    1 (Au) B                   

              Summary of significant orbitals:

               Number  Type             Irrep      Energy
               20      Occ  Alpha       1 (B2g)     -0.3371
               21      Occ  Alpha       1 (B3g)     -0.3371
               20      Occ  Beta        1 (B2g)     -0.3371
               21      Occ  Beta        1 (B3g)     -0.3371
               33      Vir  Alpha       1 (Au)      0.0555
               46      Vir  Alpha       2 (Au)      0.1142
               32      Vir  Alpha       3 (B1u)      0.0555
               45      Vir  Alpha       4 (B1u)      0.1142
               33      Vir  Beta        1 (Au)      0.0555
               46      Vir  Beta        2 (Au)      0.1142
               32      Vir  Beta        3 (B1u)      0.0555
               45      Vir  Beta        4 (B1u)      0.1142


 EOMEE transition 2/B3u
 Total energy = -231.27917592 a.u.  Excitation energy = 9.3891 eV.
 R1^2 = 1.0000  Res^2 = 1.42e-06
 Conv-d = yes

 Amplitude    Transitions between orbitals
 -0.6749       1 (B2g) A                 ->    2 (B1u) A                  
 -0.6749       1 (B2g) B                 ->    2 (B1u) B                  
  0.1902       1 (B2g) A                 ->    5 (B1u) A                  
  0.1902       1 (B2g) B                 ->    5 (B1u) B                  

              Summary of significant orbitals:

               Number  Type             Irrep      Energy
               20      Occ  Alpha       1 (B2g)     -0.3371
               20      Occ  Beta        1 (B2g)     -0.3371
               27      Vir  Alpha       2 (B1u)      0.0344
               48      Vir  Alpha       5 (B1u)      0.1722
               27      Vir  Beta        2 (B1u)      0.0344
               48      Vir  Beta        5 (B1u)      0.1722


 EOMEE transition 3/B3u
 Total energy = -231.24078811 a.u.  Excitation energy = 10.4337 eV.
 R1^2 = 1.0000  Res^2 = 4.25e-07
 Conv-d = yes

 Amplitude    Transitions between orbitals
  0.3995       1 (B3g) A                 ->    1 (Au) A                   
  0.3995       1 (B3g) B                 ->    1 (Au) B                   
  0.3995       1 (B2g) A                 ->    3 (B1u) A                  
  0.3995       1 (B2g) B                 ->    3 (B1u) B                  
  0.2836       1 (B2g) A                 ->    4 (B1u) A                  
  0.2836       1 (B2g) B                 ->    4 (B1u) B                  
 -0.2836       1 (B3g) A                 ->    2 (Au) A                   
 -0.2836       1 (B3g) B                 ->    2 (Au) B                   

              Summary of significant orbitals:

               Number  Type             Irrep      Energy
               20      Occ  Alpha       1 (B2g)     -0.3371
               21      Occ  Alpha       1 (B3g)     -0.3371
               20      Occ  Beta        1 (B2g)     -0.3371
               21      Occ  Beta        1 (B3g)     -0.3371
               33      Vir  Alpha       1 (Au)      0.0555
               46      Vir  Alpha       2 (Au)      0.1142
               32      Vir  Alpha       3 (B1u)      0.0555
               45      Vir  Alpha       4 (B1u)      0.1142
               33      Vir  Beta        1 (Au)      0.0555
               46      Vir  Beta        2 (Au)      0.1142
               32      Vir  Beta        3 (B1u)      0.0555
               45      Vir  Beta        4 (B1u)      0.1142


        EOMEE-CCSD/MP2 right amplitudes will be solved using Davidson.
        Amplitudes will be solved using standard  algorithm.
     Hard-coded thresholds: 
     LinDepThresh=1.00e-15  NormThresh=1.00e-06  ReorthogonThresh=1.00e-02

      Roots     MaxVec    MaxIter   Precond   Conv      Shift    
      3         1000      200       1         1.00e-05  0.00e+00  
 ------------------------------------------------------------------------------
      Iter ConvRoots NVecs ResNorm Current eigenvalues (eV)
 ------------------------------------------------------------------------------
      0    0      3     1.39e-01   9.3502   9.3891   10.4337   
      1    0      6     2.52e+01   7.6989   7.7992   8.7496   
      2    0      9     8.52e-01   6.7353   7.2394   7.9164   
      3    0      12    5.05e-02   6.6564   7.1853   7.7738   
      4    0      15    1.47e-01   6.6398   7.1693   7.6702   
      5    0      18    2.46e-02   6.6383   7.1610   7.6006   
      6    0      21    3.30e-03   6.6375   7.1585   7.5775   
      7    0      24    9.08e-04   6.6374   7.1585   7.5773   
      8    0      27    5.65e-05   6.6377   7.1585   7.5772   
      9    2      30    7.90e-06   6.6376*  7.1585*  7.5770   
      10   3      31    4.16e-06   6.6376*  7.1584*  7.5769*  

     Davidson procedure converged

 EOMEE transition 1/B3u
 Total energy = -231.38029082 a.u.  Excitation energy = 6.6376 eV.
 R0^2 = 0.0000  R1^2 = 0.9449  R2^2 = 0.0551  Res^2 = 1.33e-07
 Conv-d = yes

 Amplitude    Transitions between orbitals
 -0.4570       1 (B3g) A                 ->    2 (Au) A                   
 -0.4570       1 (B3g) B                 ->    2 (Au) B                   
 -0.4570       1 (B2g) A                 ->    4 (B1u) A                  
 -0.4570       1 (B2g) B                 ->    4 (B1u) B                  
  0.1070       1 (B2g) A                 ->    6 (B1u) A                  
  0.1070       1 (B2g) B                 ->    6 (B1u) B                  
  0.1070       1 (B3g) A                 ->    3 (Au) A                   
  0.1070       1 (B3g) B                 ->    3 (Au) B                   
 -0.1054       1 (B2g) A                 ->    3 (B1u) A                  
 -0.1054       1 (B2g) B                 ->    3 (B1u) B                  
  0.1054       1 (B3g) A                 ->    1 (Au) A                   
  0.1054       1 (B3g) B                 ->    1 (Au) B                   

              Summary of significant orbitals:

               Number  Type             Irrep      Energy
               20      Occ  Alpha       1 (B2g)     -0.3371
               21      Occ  Alpha       1 (B3g)     -0.3371
               20      Occ  Beta        1 (B2g)     -0.3371
               21      Occ  Beta        1 (B3g)     -0.3371
               33      Vir  Alpha       1 (Au)      0.0555
               46      Vir  Alpha       2 (Au)      0.1142
               60      Vir  Alpha       3 (Au)      0.2392
               32      Vir  Alpha       3 (B1u)      0.0555
               45      Vir  Alpha       4 (B1u)      0.1142
               59      Vir  Alpha       6 (B1u)      0.2392
               33      Vir  Beta        1 (Au)      0.0555
               46      Vir  Beta        2 (Au)      0.1142
               60      Vir  Beta        3 (Au)      0.2392
               32      Vir  Beta        3 (B1u)      0.0555
               45      Vir  Beta        4 (B1u)      0.1142
               59      Vir  Beta        6 (B1u)      0.2392


 EOMEE transition 2/B3u
 Total energy = -231.36115159 a.u.  Excitation energy = 7.1584 eV.
 R0^2 = 0.0000  R1^2 = 0.9367  R2^2 = 0.0633  Res^2 = 2.98e-06
 Conv-d = yes

 Amplitude    Transitions between orbitals
 -0.5892       1 (B2g) A                 ->    2 (B1u) A                  
 -0.5892       1 (B2g) B                 ->    2 (B1u) B                  
  0.2187       1 (B2g) A                 ->    5 (B1u) A                  
  0.2187       1 (B2g) B                 ->    5 (B1u) B                  
  0.1748       1 (B3g) A                 ->    2 (Au) A                   
  0.1748       1 (B3g) B                 ->    2 (Au) B                   
 -0.1748       1 (B2g) A                 ->    4 (B1u) A                  
 -0.1748       1 (B2g) B                 ->    4 (B1u) B                  

              Summary of significant orbitals:

               Number  Type             Irrep      Energy
               20      Occ  Alpha       1 (B2g)     -0.3371
               21      Occ  Alpha       1 (B3g)     -0.3371
               20      Occ  Beta        1 (B2g)     -0.3371
               21      Occ  Beta        1 (B3g)     -0.3371
               46      Vir  Alpha       2 (Au)      0.1142
               27      Vir  Alpha       2 (B1u)      0.0344
               45      Vir  Alpha       4 (B1u)      0.1142
               48      Vir  Alpha       5 (B1u)      0.1722
               46      Vir  Beta        2 (Au)      0.1142
               27      Vir  Beta        2 (B1u)      0.0344
               45      Vir  Beta        4 (B1u)      0.1142
               48      Vir  Beta        5 (B1u)      0.1722


 EOMEE transition 3/B3u
 Total energy = -231.34577197 a.u.  Excitation energy = 7.5769 eV.
 R0^2 = 0.0000  R1^2 = 0.9331  R2^2 = 0.0669  Res^2 = 9.35e-06
 Conv-d = yes

 Amplitude    Transitions between orbitals
 -0.4028       1 (B3g) A                 ->    2 (Au) A                   
 -0.4028       1 (B3g) B                 ->    2 (Au) B                   
  0.4028       1 (B2g) A                 ->    4 (B1u) A                  
  0.4028       1 (B2g) B                 ->    4 (B1u) B                  
 -0.2681       1 (B2g) A                 ->    2 (B1u) A                  
 -0.2681       1 (B2g) B                 ->    2 (B1u) B                  
  0.1442       1 (B2g) A                 ->    3 (B1u) A                  
  0.1442       1 (B2g) B                 ->    3 (B1u) B                  
  0.1442       1 (B3g) A                 ->    1 (Au) A                   
  0.1442       1 (B3g) B                 ->    1 (Au) B                   

              Summary of significant orbitals:

               Number  Type             Irrep      Energy
               20      Occ  Alpha       1 (B2g)     -0.3371
               21      Occ  Alpha       1 (B3g)     -0.3371
               20      Occ  Beta        1 (B2g)     -0.3371
               21      Occ  Beta        1 (B3g)     -0.3371
               33      Vir  Alpha       1 (Au)      0.0555
               46      Vir  Alpha       2 (Au)      0.1142
               27      Vir  Alpha       2 (B1u)      0.0344
               32      Vir  Alpha       3 (B1u)      0.0555
               45      Vir  Alpha       4 (B1u)      0.1142
               33      Vir  Beta        1 (Au)      0.0555
               46      Vir  Beta        2 (Au)      0.1142
               27      Vir  Beta        2 (B1u)      0.0344
               32      Vir  Beta        3 (B1u)      0.0555
               45      Vir  Beta        4 (B1u)      0.1142


      EOM-CCSD/MP2 left amplitudes will be solved using Davidson.
        Amplitudes will be solved using MOM  algorithm.
     Hard-coded thresholds: 
     LinDepThresh=1.00e-15  NormThresh=1.00e-06  ReorthogonThresh=1.00e-02

      Roots     MaxVec    MaxIter   Precond   Conv      Shift    
      3         1000      200       1         1.00e-05  0.00e+00  
 ------------------------------------------------------------------------------
      Iter ConvRoots NVecs ResNorm Current eigenvalues (eV)
 ------------------------------------------------------------------------------
      0    0      3     4.71e-03   6.6376   7.1584   7.5769   
      1    0      6     2.57e+00   6.6376   7.1584   7.5769   
      2    0      9     1.04e-02   6.6376   7.1584   7.5769   
      3    0      12    3.55e-04   6.6376   7.1584   7.5769   
      4    0      15    3.15e-04   6.6376   7.1584   7.5769   
      5    1      18    5.87e-05   6.6376   7.1584*  7.5769   
      6    3      20    9.66e-07   6.6376*  7.1584*  7.5769*  

     Davidson procedure converged

 EOMEE-CCSD calculation:   CPU 5122.49 s  wall 830.65 s

        Solving for CVS-EOMEE-CCSD Ag singlet states.

       EOMEE-CCSD-SINGLES right amplitudes will be solved using Davidson.
        Amplitudes will be solved using standard  algorithm.
     Hard-coded thresholds: 
     LinDepThresh=1.00e-15  NormThresh=1.00e-06  ReorthogonThresh=1.00e-02

      Roots     MaxVec    MaxIter   Precond   Conv      Shift    
      5         1000      200       1         1.00e-05  0.00e+00  
 ------------------------------------------------------------------------------
      Iter ConvRoots NVecs ResNorm Current eigenvalues (eV)
 ------------------------------------------------------------------------------
      0    0      5     1.02e-03   303.1933   303.2365   303.8429   303.9775   304.0063   
      1    0      10    5.43e-01   302.8931   302.9336   303.5683   303.8011   303.8339   
      2    0      15    1.19e-01   300.9319   300.9883   303.3550   303.4381   303.4786   
      3    0      20    2.84e-01   300.4384   300.5033   303.1631   303.2105   303.2859   
      4    0      25    1.19e-01   300.3822   300.4476   303.0565   303.1071   303.2640   
      5    0      30    2.52e-02   300.3775   300.4430   303.0189   303.0700   303.2602   
      6    0      35    7.45e-03   300.3768   300.4424   303.0049   303.0555   303.2593   
      7    0      40    1.36e-03   300.3768   300.4423   302.9996   303.0496   303.2590   
      8    2      45    6.43e-05   300.3767*  300.4423*  302.9987   303.0485   303.2588   
      9    3      48    6.87e-06   300.3767*  300.4423*  302.9986   303.0484   303.2588*  
      10   5      50    1.46e-06   300.3767*  300.4423*  302.9986*  303.0484*  303.2588*  

     Davidson procedure converged

        CVS-EOMEE-CCSD/MP2 right amplitudes will be solved using Davidson.
        Amplitudes will be solved using standard  algorithm.
     Hard-coded thresholds: 
     LinDepThresh=1.00e-15  NormThresh=1.00e-06  ReorthogonThresh=1.00e-02

      Roots     MaxVec    MaxIter   Precond   Conv      Shift    
      5         1000      200       1         1.00e-05  0.00e+00  
 ------------------------------------------------------------------------------
      Iter ConvRoots NVecs ResNorm Current eigenvalues (eV)
 ------------------------------------------------------------------------------
      0    0      5     1.89e+00   300.3767   300.4423   302.9986   303.0484   303.2588   
      1    0      10    1.32e+01   298.1028   298.1682   300.2484   300.3015   300.4536   
      2    0      15    1.53e-01   288.5645   288.6180   289.3543   290.1370   290.1639   
      3    0      20    3.99e-02   288.0030   288.0541   288.8624   289.4199   289.4513   
      4    0      25    1.35e-02   287.8917   287.9421   288.8329   289.2205   289.2566   
      5    0      30    6.45e-03   287.8347   287.8849   288.8206   289.1054   289.1436   
      6    0      35    5.32e-03   287.8035   287.8537   288.8105   289.0251   289.0633   
      7    0      40    2.71e-03   287.7819   287.8323   288.8002   288.9565   288.9930   
      8    0      45    1.28e-03   287.7750   287.8254   288.7939   288.9219   288.9568   
      9    0      50    1.17e-03   287.7708   287.8211   288.7897   288.8968   288.9303   
      10   0      55    9.26e-04   287.7678   287.8182   288.7848   288.8686   288.8997   
      11   0      60    8.56e-04   287.7663   287.8168   288.7810   288.8475   288.8759   
      12   0      65    4.21e-04   287.7658   287.8162   288.7766   288.8312   288.8573   
      13   0      70    2.98e-04   287.7655   287.8159   288.7742   288.8220   288.8461   
      14   2      75    1.64e-04   287.7653*  287.8157*  288.7723   288.8178   288.8413   
      15   2      78    1.08e-04   287.7653*  287.8157*  288.7704   288.8136   288.8359   
      16   2      81    6.11e-05   287.7653*  287.8157*  288.7697   288.8123   288.8342   
      17   2      84    2.85e-05   287.7653*  287.8157*  288.7696   288.8116   288.8333   
      18   2      87    1.93e-05   287.7653*  287.8157*  288.7692   288.8110   288.8323   
      19   3      90    1.22e-05   287.7653*  287.8157*  288.7690*  288.8108   288.8323   
      20   3      92    9.18e-06   287.7653*  287.8157*  288.7688*  288.8103   288.8313   
      21   4      94    6.68e-06   287.7652*  287.8156*  288.7689*  288.8106*  288.8320   
      22   5      95    6.41e-06   287.7652*  287.8156*  288.7689*  288.8106*  288.8314*  

     Davidson procedure converged

 EOMEE transition 1/Ag
 Total energy = -221.04904127 a.u.  Excitation energy = 287.7652 eV.
 R0^2 = 0.0000  R1^2 = 0.8118  R2_CCVV^2 = 0.0017  R2_COVV^2 = 0.0932  Res^2 = 5.07e-06
 Conv-d = yes

 Amplitude    Transitions between orbitals
  0.3570       2 (Ag) A                  ->    7 (Ag) A                   
  0.3570       2 (Ag) B                  ->    7 (Ag) B                   
  0.2783       2 (Ag) A                  ->    11 (Ag) A                  
  0.2783       2 (Ag) B                  ->    11 (Ag) B                  
  0.1653       2 (B3u) A                 ->    6 (B3u) A                  
  0.1653       2 (B3u) B                 ->    6 (B3u) B                  
 -0.1425       2 (B3u) A                 ->    9 (B3u) A                  
 -0.1425       2 (B3u) B                 ->    9 (B3u) B                  
  0.1375       2 (Ag) A                  ->    9 (Ag) A                   
  0.1375       2 (Ag) B                  ->    9 (Ag) B                   
  0.1254       2 (Ag) A                  ->    15 (Ag) A                  
  0.1254       2 (Ag) B                  ->    15 (Ag) B                  
 -0.1094       1 (B3u) A                 ->    6 (B3u) A                  
 -0.1094       1 (B3u) B                 ->    6 (B3u) B                  
 -0.1094       1 (B2u) A                 ->    5 (B2u) A                  
 -0.1094       1 (B2u) B                 ->    5 (B2u) B                  
  0.1074       2 (B3u) A                 ->    8 (B3u) A                  
  0.1074       2 (B3u) B                 ->    8 (B3u) B                  

              Summary of significant orbitals:

               Number  Type             Irrep      Energy
               4       Occ  Alpha       2 (Ag)    -11.2375
               3       Occ  Alpha       1 (B2u)    -11.2387
               2       Occ  Alpha       1 (B3u)    -11.2387
               6       Occ  Alpha       2 (B3u)    -11.2369
               4       Occ  Beta        2 (Ag)    -11.2375
               3       Occ  Beta        1 (B2u)    -11.2387
               2       Occ  Beta        1 (B3u)    -11.2387
               6       Occ  Beta        2 (B3u)    -11.2369
               22      Vir  Alpha       7 (Ag)      0.0169
               34      Vir  Alpha       9 (Ag)      0.0572
               40      Vir  Alpha      11 (Ag)      0.0843
               58      Vir  Alpha      15 (Ag)      0.2373
               24      Vir  Alpha       5 (B2u)      0.0216
               23      Vir  Alpha       6 (B3u)      0.0216
               35      Vir  Alpha       8 (B3u)      0.0667
               41      Vir  Alpha       9 (B3u)      0.0928
               22      Vir  Beta        7 (Ag)      0.0169
               34      Vir  Beta        9 (Ag)      0.0572
               40      Vir  Beta       11 (Ag)      0.0843
               58      Vir  Beta       15 (Ag)      0.2373
               24      Vir  Beta        5 (B2u)      0.0216
               23      Vir  Beta        6 (B3u)      0.0216
               35      Vir  Beta        8 (B3u)      0.0667
               41      Vir  Beta        9 (B3u)      0.0928


 EOMEE transition 2/Ag
 Total energy = -221.04718935 a.u.  Excitation energy = 287.8156 eV.
 R0^2 = 0.0000  R1^2 = 0.8117  R2_CCVV^2 = 0.0017  R2_COVV^2 = 0.0933  Res^2 = 4.59e-06
 Conv-d = yes

 Amplitude    Transitions between orbitals
 -0.3531       1 (Ag) A                  ->    7 (Ag) A                   
 -0.3531       1 (Ag) B                  ->    7 (Ag) B                   
 -0.2758       1 (Ag) A                  ->    11 (Ag) A                  
 -0.2758       1 (Ag) B                  ->    11 (Ag) B                  
  0.1626       1 (B2u) A                 ->    5 (B2u) A                  
  0.1626       1 (B2u) B                 ->    5 (B2u) B                  
 -0.1626       1 (B3u) A                 ->    6 (B3u) A                  
 -0.1626       1 (B3u) B                 ->    6 (B3u) B                  
 -0.1405       1 (B2u) A                 ->    8 (B2u) A                  
 -0.1405       1 (B2u) B                 ->    8 (B2u) B                  
  0.1405       1 (B3u) A                 ->    9 (B3u) A                  
  0.1405       1 (B3u) B                 ->    9 (B3u) B                  
 -0.1359       1 (Ag) A                  ->    9 (Ag) A                   
 -0.1359       1 (Ag) B                  ->    9 (Ag) B                   
 -0.1241       1 (Ag) A                  ->    15 (Ag) A                  
 -0.1241       1 (Ag) B                  ->    15 (Ag) B                  
  0.1056       1 (B2u) A                 ->    7 (B2u) A                  
  0.1056       1 (B2u) B                 ->    7 (B2u) B                  
 -0.1056       1 (B3u) A                 ->    8 (B3u) A                  
 -0.1056       1 (B3u) B                 ->    8 (B3u) B                  

              Summary of significant orbitals:

               Number  Type             Irrep      Energy
               1       Occ  Alpha       1 (Ag)    -11.2393
               3       Occ  Alpha       1 (B2u)    -11.2387
               2       Occ  Alpha       1 (B3u)    -11.2387
               1       Occ  Beta        1 (Ag)    -11.2393
               3       Occ  Beta        1 (B2u)    -11.2387
               2       Occ  Beta        1 (B3u)    -11.2387
               22      Vir  Alpha       7 (Ag)      0.0169
               34      Vir  Alpha       9 (Ag)      0.0572
               40      Vir  Alpha      11 (Ag)      0.0843
               58      Vir  Alpha      15 (Ag)      0.2373
               24      Vir  Alpha       5 (B2u)      0.0216
[...]
 State A: cvs_eomee_ccsd/rhfref/singlets: 4/B2u
 State B: cvs_eomee_ccsd/rhfref/singlets: 3/B3u
 Transition dipole moment (a.u.):
   A->B: 0.000000 (X 0.000000, Y 0.000000, Z 0.000000)
   B->A: 0.000000 (X 0.000000, Y 0.000000, Z 0.000000)
 Oscillator strength (a.u.): 0.000000
 Norm of one-particle transition density matrix:
   A->B: 0.405067;   B->A: 0.404468
   ||gamma^AB||*||gamma^BA||: 0.163837

 ------------------------------------------------------------------------------
 State A: cvs_eomee_ccsd/rhfref/singlets: 4/B2u
 State B: cvs_eomee_ccsd/rhfref/singlets: 4/B3u
 Transition dipole moment (a.u.):
   A->B: 0.000000 (X 0.000000, Y 0.000000, Z 0.000000)
   B->A: 0.000000 (X 0.000000, Y 0.000000, Z 0.000000)
 Oscillator strength (a.u.): 0.000000
 Norm of one-particle transition density matrix:
   A->B: 0.363681;   B->A: 0.364168
   ||gamma^AB||*||gamma^BA||: 0.132441

 ------------------------------------------------------------------------------
 State A: cvs_eomee_ccsd/rhfref/singlets: 4/B2u
 State B: cvs_eomee_ccsd/rhfref/singlets: 5/B3u
 Transition dipole moment (a.u.):
   A->B: 0.000000 (X 0.000000, Y 0.000000, Z 0.000000)
   B->A: 0.000000 (X 0.000000, Y 0.000000, Z 0.000000)
 Oscillator strength (a.u.): 0.000000
 Norm of one-particle transition density matrix:
   A->B: 0.415760;   B->A: 0.415880
   ||gamma^AB||*||gamma^BA||: 0.172906

 ------------------------------------------------------------------------------
 State A: cvs_eomee_ccsd/rhfref/singlets: 5/B2u
 State B: cvs_eomee_ccsd/rhfref/singlets: 1/B3u
 Transition dipole moment (a.u.):
   A->B: 0.000000 (X 0.000000, Y 0.000000, Z 0.000000)
   B->A: 0.000000 (X 0.000000, Y 0.000000, Z 0.000000)
 Oscillator strength (a.u.): 0.000000
 Norm of one-particle transition density matrix:
   A->B: 0.191688;   B->A: 0.192786
   ||gamma^AB||*||gamma^BA||: 0.036955

 ------------------------------------------------------------------------------
 State A: cvs_eomee_ccsd/rhfref/singlets: 5/B2u
 State B: cvs_eomee_ccsd/rhfref/singlets: 2/B3u
 Transition dipole moment (a.u.):
   A->B: 0.000000 (X 0.000000, Y 0.000000, Z 0.000000)
   B->A: 0.000000 (X 0.000000, Y 0.000000, Z 0.000000)
 Oscillator strength (a.u.): 0.000000
 Norm of one-particle transition density matrix:
   A->B: 0.154957;   B->A: 0.155881
   ||gamma^AB||*||gamma^BA||: 0.024155

 ------------------------------------------------------------------------------
 State A: cvs_eomee_ccsd/rhfref/singlets: 5/B2u
 State B: cvs_eomee_ccsd/rhfref/singlets: 3/B3u
 Transition dipole moment (a.u.):
   A->B: 0.000000 (X 0.000000, Y 0.000000, Z 0.000000)
   B->A: 0.000000 (X 0.000000, Y 0.000000, Z 0.000000)
 Oscillator strength (a.u.): 0.000000
 Norm of one-particle transition density matrix:
   A->B: 0.243202;   B->A: 0.242910
   ||gamma^AB||*||gamma^BA||: 0.059076

 ------------------------------------------------------------------------------
 State A: cvs_eomee_ccsd/rhfref/singlets: 5/B2u
 State B: cvs_eomee_ccsd/rhfref/singlets: 4/B3u
 Transition dipole moment (a.u.):
   A->B: 0.000000 (X 0.000000, Y 0.000000, Z 0.000000)
   B->A: 0.000000 (X 0.000000, Y 0.000000, Z 0.000000)
 Oscillator strength (a.u.): 0.000000
 Norm of one-particle transition density matrix:
   A->B: 0.189952;   B->A: 0.191370
   ||gamma^AB||*||gamma^BA||: 0.036351

 ------------------------------------------------------------------------------
 State A: cvs_eomee_ccsd/rhfref/singlets: 5/B2u
 State B: cvs_eomee_ccsd/rhfref/singlets: 5/B3u
 Transition dipole moment (a.u.):
   A->B: 0.000000 (X 0.000000, Y 0.000000, Z 0.000000)
   B->A: 0.000000 (X 0.000000, Y 0.000000, Z 0.000000)
 Oscillator strength (a.u.): 0.000000
 Norm of one-particle transition density matrix:
   A->B: 0.253552;   B->A: 0.253313
   ||gamma^AB||*||gamma^BA||: 0.064228

 ------------------------------------------------------------------------------
 State A: cvs_eomee_ccsd/rhfref/singlets: 1/B3u
 State B: cvs_eomee_ccsd/rhfref/singlets: 2/B3u
 Transition dipole moment (a.u.):
   A->B: 0.000000 (X 0.000000, Y 0.000000, Z 0.000000)
   B->A: 0.000000 (X 0.000000, Y 0.000000, Z 0.000000)
 Oscillator strength (a.u.): 0.000000
 Norm of one-particle transition density matrix:
   A->B: 0.488033;   B->A: 0.488068
   ||gamma^AB||*||gamma^BA||: 0.238194

 ------------------------------------------------------------------------------
 State A: cvs_eomee_ccsd/rhfref/singlets: 1/B3u
 State B: cvs_eomee_ccsd/rhfref/singlets: 3/B3u
 Transition dipole moment (a.u.):
   A->B: 0.000000 (X 0.000000, Y 0.000000, Z 0.000000)
   B->A: 0.000000 (X 0.000000, Y 0.000000, Z 0.000000)
 Oscillator strength (a.u.): 0.000000
 Norm of one-particle transition density matrix:
   A->B: 0.500097;   B->A: 0.498446
   ||gamma^AB||*||gamma^BA||: 0.249271

 ------------------------------------------------------------------------------
 State A: cvs_eomee_ccsd/rhfref/singlets: 1/B3u
 State B: cvs_eomee_ccsd/rhfref/singlets: 4/B3u
 Transition dipole moment (a.u.):
   A->B: 0.000000 (X 0.000000, Y 0.000000, Z 0.000000)
   B->A: 0.000000 (X 0.000000, Y 0.000000, Z 0.000000)
 Oscillator strength (a.u.): 0.000000
 Norm of one-particle transition density matrix:
   A->B: 0.375837;   B->A: 0.374594
   ||gamma^AB||*||gamma^BA||: 0.140786

 ------------------------------------------------------------------------------
 State A: cvs_eomee_ccsd/rhfref/singlets: 1/B3u
 State B: cvs_eomee_ccsd/rhfref/singlets: 5/B3u
 Transition dipole moment (a.u.):
   A->B: 0.000000 (X 0.000000, Y 0.000000, Z 0.000000)
   B->A: 0.000000 (X 0.000000, Y 0.000000, Z 0.000000)
 Oscillator strength (a.u.): 0.000000
 Norm of one-particle transition density matrix:
   A->B: 0.268127;   B->A: 0.267457
   ||gamma^AB||*||gamma^BA||: 0.071713

 ------------------------------------------------------------------------------
 State A: cvs_eomee_ccsd/rhfref/singlets: 2/B3u
 State B: cvs_eomee_ccsd/rhfref/singlets: 3/B3u
 Transition dipole moment (a.u.):
   A->B: 0.000000 (X 0.000000, Y 0.000000, Z 0.000000)
   B->A: 0.000000 (X 0.000000, Y 0.000000, Z 0.000000)
 Oscillator strength (a.u.): 0.000000
 Norm of one-particle transition density matrix:
   A->B: 0.331830;   B->A: 0.330475
   ||gamma^AB||*||gamma^BA||: 0.109662

 ------------------------------------------------------------------------------
 State A: cvs_eomee_ccsd/rhfref/singlets: 2/B3u
 State B: cvs_eomee_ccsd/rhfref/singlets: 4/B3u
 Transition dipole moment (a.u.):
   A->B: 0.000000 (X 0.000000, Y 0.000000, Z 0.000000)
   B->A: 0.000000 (X 0.000000, Y 0.000000, Z 0.000000)
 Oscillator strength (a.u.): 0.000000
 Norm of one-particle transition density matrix:
   A->B: 0.330042;   B->A: 0.329618
   ||gamma^AB||*||gamma^BA||: 0.108788

 ------------------------------------------------------------------------------
 State A: cvs_eomee_ccsd/rhfref/singlets: 2/B3u
 State B: cvs_eomee_ccsd/rhfref/singlets: 5/B3u
 Transition dipole moment (a.u.):
   A->B: 0.000000 (X 0.000000, Y 0.000000, Z 0.000000)
   B->A: 0.000000 (X 0.000000, Y 0.000000, Z 0.000000)
 Oscillator strength (a.u.): 0.000000
 Norm of one-particle transition density matrix:
   A->B: 0.485743;   B->A: 0.484314
   ||gamma^AB||*||gamma^BA||: 0.235252

 ------------------------------------------------------------------------------
 State A: cvs_eomee_ccsd/rhfref/singlets: 3/B3u
 State B: cvs_eomee_ccsd/rhfref/singlets: 4/B3u
 Transition dipole moment (a.u.):
   A->B: 0.000000 (X 0.000000, Y 0.000000, Z 0.000000)
   B->A: 0.000000 (X 0.000000, Y 0.000000, Z 0.000000)
 Oscillator strength (a.u.): 0.000000
 Norm of one-particle transition density matrix:
   A->B: 0.416591;   B->A: 0.417011
   ||gamma^AB||*||gamma^BA||: 0.173723

 ------------------------------------------------------------------------------
 State A: cvs_eomee_ccsd/rhfref/singlets: 3/B3u
 State B: cvs_eomee_ccsd/rhfref/singlets: 5/B3u
 Transition dipole moment (a.u.):
   A->B: 0.000000 (X 0.000000, Y 0.000000, Z 0.000000)
   B->A: 0.000000 (X 0.000000, Y 0.000000, Z 0.000000)
 Oscillator strength (a.u.): 0.000000
 Norm of one-particle transition density matrix:
   A->B: 0.406113;   B->A: 0.406648
   ||gamma^AB||*||gamma^BA||: 0.165145

 ------------------------------------------------------------------------------
 State A: cvs_eomee_ccsd/rhfref/singlets: 4/B3u
 State B: cvs_eomee_ccsd/rhfref/singlets: 5/B3u
 Transition dipole moment (a.u.):
   A->B: 0.000000 (X 0.000000, Y 0.000000, Z 0.000000)
   B->A: 0.000000 (X 0.000000, Y 0.000000, Z 0.000000)
 Oscillator strength (a.u.): 0.000000
 Norm of one-particle transition density matrix:
   A->B: 0.396639;   B->A: 0.396128
   ||gamma^AB||*||gamma^BA||: 0.157120


 All requested transition properties have been computed

 Transition Properties:   CPU 19629.34 s  wall 4082.08 s

 Total ccman2 time:   CPU 90302.26 s  wall 14730.28 s

 
 --------------------------------------------------------------
             Orbital Energies (a.u.) and Symmetries
 --------------------------------------------------------------
 
 Alpha MOs, Restricted
 -- Occupied --                  
-11.239 -11.239 -11.239 -11.237 -11.237 -11.237  -1.153  -1.017
  1 Ag    1 B3u   1 B2u   2 Ag    1 B1g   2 B3u   3 Ag    3 B3u                
 -1.017  -0.826  -0.826  -0.712  -0.645  -0.621  -0.590  -0.590
  2 B2u   4 Ag    2 B1g   5 Ag    4 B3u   3 B2u   5 B3u   4 B2u                
 -0.502  -0.496  -0.496  -0.337  -0.337
  1 B1u   6 Ag    3 B1g   1 B2g   1 B3g                                        
 -- Virtual --                   
  0.017   0.022   0.022   0.033   0.033   0.034   0.044   0.044
  7 Ag    6 B3u   5 B2u   8 Ag    4 B1g   2 B1u   2 B2g   2 B3g                
  0.049   0.054   0.056   0.056   0.057   0.067   0.067   0.069
  7 B3u   6 B2u   3 B1u   1 Au    9 Ag    8 B3u   7 B2u   3 B2g                
  0.070   0.070   0.084   0.093   0.093   0.103   0.103   0.114
 10 Ag    5 B1g  11 Ag    9 B3u   8 B2u  12 Ag    6 B1g   4 B1u                
  0.114   0.131   0.172   0.186   0.186   0.186   0.195   0.204
  2 Au   10 B3u   5 B1u   4 B2g   3 B3g   9 B2u  13 Ag   14 Ag                 
  0.204   0.225   0.225   0.225   0.237   0.239   0.239   0.247
  7 B1g  11 B3u  10 B2u   5 B2g  15 Ag    6 B1u   3 Au   16 Ag                 
  0.247   0.250   0.250   0.255   0.255   0.281   0.289   0.289
  8 B1g  12 B3u  11 B2u  13 B3u  12 B2u  14 B3u  17 Ag    9 B1g                
  0.303   0.338   0.374   0.413   0.426   0.426   0.454   0.454
 10 B1g  18 Ag    6 B2g  15 B3u  16 B3u  13 B2u  19 Ag   11 B1g                
  0.515   0.515   0.522   0.522   0.621   0.623   0.719   0.739
 20 Ag   12 B1g  17 B3u  14 B2u  21 Ag   15 B2u  18 B3u  19 B3u                
  0.739   0.751   0.752   0.758   0.758   0.785   0.785   0.822
 16 B2u   7 B1u  13 B1g  22 Ag   14 B1g   7 B2g   4 B3g  23 Ag                 
  0.836   0.836   0.891   0.896   0.939   0.939   0.960   0.960
  8 B1u   4 Au   20 B3u   8 B2g  21 B3u  17 B2u  24 Ag   15 B1g                
  0.976   1.016   1.016   1.063   1.063   1.108   1.110   1.110
 25 Ag   22 B3u  18 B2u  26 Ag   16 B1g  23 B3u  24 B3u  19 B2u                
  1.131   1.170   1.204   1.204   1.250   1.324   1.324   1.392
 17 B1g   9 B1u  27 Ag   18 B1g   5 B3g   9 B2g   6 B3g  10 B1u                
  1.392   1.475   1.561   1.720   1.789   1.794   1.794   1.829
  5 Au   25 B3u  28 Ag   20 B2u  29 Ag   26 B3u  21 B2u  10 B2g                
  1.848   1.848   1.910   1.910   1.933   1.933   1.993   2.056
 11 B1u   6 Au   19 B1g  30 Ag   22 B2u  27 B3u  12 B1u  11 B2g                
  2.056   2.109   2.109   2.132   2.239   2.239   2.239   2.253
  7 B3g  31 Ag   20 B1g  23 B2u  21 B1g   8 B3g  12 B2g  28 B3u                
  2.253   2.301   2.350   2.350   2.381   2.381   2.642   2.664
 24 B2u  29 B3u  22 B1g  32 Ag   13 B1u   7 Au   13 B2g   8 Au                 
  2.749   2.749   2.768   2.831   2.831   2.941   2.941   2.977
 33 Ag   23 B1g  34 Ag   30 B3u  25 B2u  26 B2u  31 B3u  35 Ag                 
  2.980   3.031   3.031   3.035   3.044   3.044   3.082   3.208
 32 B3u  33 B3u  27 B2u  34 B3u  36 Ag   24 B1g  14 B1u  14 B2g                
  3.208   3.268   3.302   3.302   3.339   3.339   3.487   3.557
  9 B3g  25 B1g  15 B1u   9 Au   37 Ag   26 B1g  15 B2g  28 B2u                
  3.775   3.775   3.912   3.912   3.938   4.074   4.397   4.397
 27 B1g  38 Ag   35 B3u  29 B2u  39 Ag   36 B3u  40 Ag   28 B1g                
  4.485   4.533   4.533   5.134   5.279   5.461   5.461   5.789
 37 B3u  38 B3u  30 B2u  41 Ag   29 B1g  39 B3u  31 B2u  42 Ag                 
  5.789   6.211  20.654  20.721  20.721  20.862  20.862  21.155
 30 B1g  40 B3u  43 Ag   41 B3u  32 B2u  44 Ag   31 B1g  42 B3u                
 80.225  80.296  80.296  80.416  80.416  80.640 322.068 322.132
 45 Ag   43 B3u  33 B2u  46 Ag   32 B1g  44 B3u  47 Ag   45 B3u                
322.132 322.234 322.234 322.4161431.6381431.6941431.6941431.781
 34 B2u  48 Ag   33 B1g  46 B3u  49 Ag   47 B3u  35 B2u  50 Ag                 
*******1431.9338749.8788749.9238749.9238749.9948749.9948750.117
 34 B1g  48 B3u  51 Ag   49 B3u  36 B2u  52 Ag   35 B1g  50 B3u                
 
 Beta MOs, Restricted
 -- Occupied --                  
-11.239 -11.239 -11.239 -11.237 -11.237 -11.237  -1.153  -1.017
  1 Ag    1 B3u   1 B2u   2 Ag    1 B1g   2 B3u   3 Ag    3 B3u                
 -1.017  -0.826  -0.826  -0.712  -0.645  -0.621  -0.590  -0.590
  2 B2u   4 Ag    2 B1g   5 Ag    4 B3u   3 B2u   5 B3u   4 B2u                
 -0.502  -0.496  -0.496  -0.337  -0.337
  1 B1u   6 Ag    3 B1g   1 B2g   1 B3g                                        
 -- Virtual --                   
  0.017   0.022   0.022   0.033   0.033   0.034   0.044   0.044
  7 Ag    6 B3u   5 B2u   8 Ag    4 B1g   2 B1u   2 B2g   2 B3g                
  0.049   0.054   0.056   0.056   0.057   0.067   0.067   0.069
  7 B3u   6 B2u   3 B1u   1 Au    9 Ag    8 B3u   7 B2u   3 B2g                
  0.070   0.070   0.084   0.093   0.093   0.103   0.103   0.114
 10 Ag    5 B1g  11 Ag    9 B3u   8 B2u  12 Ag    6 B1g   4 B1u                
  0.114   0.131   0.172   0.186   0.186   0.186   0.195   0.204
  2 Au   10 B3u   5 B1u   4 B2g   3 B3g   9 B2u  13 Ag   14 Ag                 
  0.204   0.225   0.225   0.225   0.237   0.239   0.239   0.247
  7 B1g  11 B3u  10 B2u   5 B2g  15 Ag    6 B1u   3 Au   16 Ag                 
  0.247   0.250   0.250   0.255   0.255   0.281   0.289   0.289
  8 B1g  12 B3u  11 B2u  13 B3u  12 B2u  14 B3u  17 Ag    9 B1g                
  0.303   0.338   0.374   0.413   0.426   0.426   0.454   0.454
 10 B1g  18 Ag    6 B2g  15 B3u  16 B3u  13 B2u  19 Ag   11 B1g                
  0.515   0.515   0.522   0.522   0.621   0.623   0.719   0.739
 20 Ag   12 B1g  17 B3u  14 B2u  21 Ag   15 B2u  18 B3u  19 B3u                
  0.739   0.751   0.752   0.758   0.758   0.785   0.785   0.822
 16 B2u   7 B1u  13 B1g  22 Ag   14 B1g   7 B2g   4 B3g  23 Ag                 
  0.836   0.836   0.891   0.896   0.939   0.939   0.960   0.960
  8 B1u   4 Au   20 B3u   8 B2g  21 B3u  17 B2u  24 Ag   15 B1g                
  0.976   1.016   1.016   1.063   1.063   1.108   1.110   1.110
 25 Ag   22 B3u  18 B2u  26 Ag   16 B1g  23 B3u  24 B3u  19 B2u                
  1.131   1.170   1.204   1.204   1.250   1.324   1.324   1.392
 17 B1g   9 B1u  27 Ag   18 B1g   5 B3g   9 B2g   6 B3g  10 B1u                
  1.392   1.475   1.561   1.720   1.789   1.794   1.794   1.829
  5 Au   25 B3u  28 Ag   20 B2u  29 Ag   26 B3u  21 B2u  10 B2g                
  1.848   1.848   1.910   1.910   1.933   1.933   1.993   2.056
 11 B1u   6 Au   19 B1g  30 Ag   22 B2u  27 B3u  12 B1u  11 B2g                
  2.056   2.109   2.109   2.132   2.239   2.239   2.239   2.253
  7 B3g  31 Ag   20 B1g  23 B2u  21 B1g   8 B3g  12 B2g  28 B3u                
  2.253   2.301   2.350   2.350   2.381   2.381   2.642   2.664
 24 B2u  29 B3u  22 B1g  32 Ag   13 B1u   7 Au   13 B2g   8 Au                 
  2.749   2.749   2.768   2.831   2.831   2.941   2.941   2.977
 33 Ag   23 B1g  34 Ag   30 B3u  25 B2u  26 B2u  31 B3u  35 Ag                 
  2.980   3.031   3.031   3.035   3.044   3.044   3.082   3.208
 32 B3u  33 B3u  27 B2u  34 B3u  36 Ag   24 B1g  14 B1u  14 B2g                
  3.208   3.268   3.302   3.302   3.339   3.339   3.487   3.557
  9 B3g  25 B1g  15 B1u   9 Au   37 Ag   26 B1g  15 B2g  28 B2u                
  3.775   3.775   3.912   3.912   3.938   4.074   4.397   4.397
 27 B1g  38 Ag   35 B3u  29 B2u  39 Ag   36 B3u  40 Ag   28 B1g                
  4.485   4.533   4.533   5.134   5.279   5.461   5.461   5.789
 37 B3u  38 B3u  30 B2u  41 Ag   29 B1g  39 B3u  31 B2u  42 Ag                 
  5.789   6.211  20.654  20.721  20.721  20.862  20.862  21.155
 30 B1g  40 B3u  43 Ag   41 B3u  32 B2u  44 Ag   31 B1g  42 B3u                
 80.225  80.296  80.296  80.416  80.416  80.640 322.068 322.132
 45 Ag   43 B3u  33 B2u  46 Ag   32 B1g  44 B3u  47 Ag   45 B3u                
322.132 322.234 322.234 322.4161431.6381431.6941431.6941431.781
 34 B2u  48 Ag   33 B1g  46 B3u  49 Ag   47 B3u  35 B2u  50 Ag                 
*******1431.9338749.8788749.9238749.9238749.9948749.9948750.117
 34 B1g  48 B3u  51 Ag   49 B3u  36 B2u  52 Ag   35 B1g  50 B3u                
 --------------------------------------------------------------
 
          Ground-State Mulliken Net Atomic Charges

     Atom                 Charge (a.u.)
  ----------------------------------------
      1 H                     0.192118
      2 C                    -0.192118
      3 C                    -0.192118
      4 H                     0.192118
      5 C                    -0.192118
      6 H                     0.192118
      7 C                    -0.192118
      8 H                     0.192118
      9 C                    -0.192118
     10 H                     0.192118
     11 C                    -0.192118
     12 H                     0.192118
  ----------------------------------------
  Sum of atomic charges =    -0.000000

 -----------------------------------------------------------------
                    Cartesian Multipole Moments
 -----------------------------------------------------------------
    Charge (ESU x 10^10)
                 0.0000
    Dipole Moment (Debye)
         X      -0.0000      Y      -0.0000      Z      -0.0000
       Tot       0.0000
    Quadrupole Moments (Debye-Ang)
        XX     -31.9206     XY      -0.0000     YY     -31.9206
        XZ      -0.0000     YZ      -0.0000     ZZ     -41.2888
    Octopole Moments (Debye-Ang^2)
       XXX       0.0000    XXY       0.0000    XYY       0.0000
       YYY       0.0000    XXZ      -0.0000    XYZ      -0.0000
       YYZ      -0.0000    XZZ      -0.0000    YZZ      -0.0000
       ZZZ      -0.0000
    Hexadecapole Moments (Debye-Ang^3)
      XXXX    -270.4594   XXXY      -0.0000   XXYY     -90.1531
      XYYY       0.0000   YYYY    -270.4594   XXXZ       0.0000
      XXYZ      -0.0000   XYYZ       0.0000   YYYZ      -0.0000
      XXZZ     -66.0953   XYZZ       0.0000   YYZZ     -66.0953
      XZZZ       0.0000   YZZZ      -0.0000   ZZZZ     -52.3832
 -----------------------------------------------------------------
Archival summary:
1\1\n-62-23-15\SP\ProcedureUnspecified\BasisUnspecified\66\malop\TueNov600:51:132018TueNov600:51:132018\0\\#,ProcedureUnspecified,BasisUnspecified,\\0,1\C\H,1,1.08144\C,1,1.39359,2,120\H,3,1.08144,1,120,2,-0,0\C,3,1.39359,1,120,2,180,0\H,5,1.08144,3,120,1,180,0\C,5,1.39359,3,120,1,-0,0\H,7,1.08144,5,120,3,180,0\C,7,1.39359,5,120,3,0,0\H,9,1.08144,7,120,5,180,0\C,9,1.39359,7,120,5,-0,0\H,11,1.08144,9,120,7,-180,0\\HF=-230.756847\\@

 Total job time:  14825.16s(wall), 90557.88s(cpu) 
 Tue Nov  6 00:51:13 2018

        *************************************************************
        *                                                           *
        *  Thank you very much for using Q-Chem.  Have a nice day.  *
        *                                                           *
        *************************************************************


