Q-Chem Developer Version!
                  Welcome to Q-Chem
     A Quantum Leap Into The Future Of Chemistry


 Q-Chem 5.1, Q-Chem, Inc., Pleasanton, CA (2018)

 Yihan Shao,  Zhengting Gan,  E. Epifanovsky,  A. T. B. Gilbert,  M. Wormit,  
 J. Kussmann,  A. W. Lange,  A. Behn,  Jia Deng,  Xintian Feng,  D. Ghosh,  
 M. Goldey,  P. R. Horn,  L. D. Jacobson,  I. Kaliman,  T. Kus,  A. Landau,  
 Jie Liu,  E. I. Proynov,  R. M. Richard,  R. P. Steele,  E. J. Sundstrom,  
 H. L. Woodcock III,  P. M. Zimmerman,  D. Zuev,  B. Albrecht,  E. Alguire,  
 S. A. Baeppler,  D. Barton,  Z. Benda,  Y. A. Bernard,  E. J. Berquist,  
 K. B. Bravaya,  H. Burton,  D. Casanova,  Chun-Min Chang,  Yunqing Chen,  
 A. Chien,  K. D. Closser,  M. P. Coons,  S. Coriani,  S. Dasgupta,  
 A. L. Dempwolff,  M. Diedenhofen,  Hainam Do,  R. G. Edgar,  Po-Tung Fang,  
 S. Faraji,  S. Fatehi,  Qingguo Feng,  K. D. Fenk,  J. Fosso-Tande,  
 Qinghui Ge,  A. Ghysels,  G. Gidofalvi,  J. Gomes,  J. Gonthier,  A. Gunina,  
 D. Hait,  M. W. D. Hanson-Heine,  P. H. P. Harbach,  A. W. Hauser,  
 J. E. Herr,  E. G. Hohenstein,  Z. C. Holden,  Kerwin Hui,  B. C. Huynh,  
 T.-C. Jagau,  Hyunjun Ji,  B. Kaduk,  K. Khistyaev,  Jaehoon Kim,  
 P. Klunzinger,  K. Koh,  D. Kosenkov,  L. Koulias,  T. Kowalczyk,  
 C. M. Krauter,  A. Kunitsa,  Ka Un Lao,  A. Laurent,  K. V. Lawler,  
 Joonho Lee,  D. Lefrancois,  S. Lehtola,  D. S. Levine,  Yi-Pei Li,  
 You-Sheng Lin,  Fenglai Liu,  E. Livshits,  A. Luenser,  P. Manohar,  
 E. Mansoor,  S. F. Manzer,  Shan-Ping Mao,  Yuezhi Mao,  N. Mardirossian,  
 A. V. Marenich,  T. Markovich,  L. A. Martinez-Martinez,  S. A. Maurer,  
 N. J. Mayhall,  S. C. McKenzie,  J.-M. Mewes,  A. F. Morrison,  
 J. W. Mullinax,  K. Nanda,  T. S. Nguyen-Beck,  R. Olivares-Amaya,  
 J. A. Parkhill,  T. M. Perrine,  F. Plasser,  P. Pokhilko,  S. Prager,  
 A. Prociuk,  E. Ramos,  D. R. Rehn,  F. Rob,  M. Schneider,  N. Sergueev,  
 S. M. Sharada,  S. Sharma,  D. W. Small,  T. Stauch,  T. Stein,  
 Yu-Chuan Su,  A. J. W. Thom,  A. Tkatchenko,  T. Tsuchimochi,  N. M. Tubman,  
 L. Vogt,  M. L. Vidal,  O. Vydrov,  M. A. Watson,  J. Wenzel,  
 M. de Wergifosse,  T. A. Wesolowski,  A. White,  J. Witte,  A. Yamada,  
 Jun Yang,  K. Yao,  S. Yeganeh,  S. R. Yost,  Zhi-Qiang You,  A. Zech,  
 Igor Ying Zhang,  Xing Zhang,  Yan Zhao,  Ying Zhu,  B. R. Brooks,  
 G. K. L. Chan,  C. J. Cramer,  M. S. Gordon,  W. J. Hehre,  A. Klamt,  
 M. W. Schmidt,  C. D. Sherrill,  D. G. Truhlar,  A. Aspuru-Guzik,  R. Baer,  
 A. T. Bell,  N. A. Besley,  Jeng-Da Chai,  A. E. DePrince, III,  
 R. A. DiStasio Jr.,  A. Dreuw,  B. D. Dunietz,  T. R. Furlani,  
 Chao-Ping Hsu,  Yousung Jung,  Jing Kong,  D. S. Lambrecht,  WanZhen Liang,  
 C. Ochsenfeld,  V. A. Rassolov,  L. V. Slipchenko,  J. E. Subotnik,  
 T. Van Voorhis,  J. M. Herbert,  A. I. Krylov,  P. M. W. Gill,  M. Head-Gordon

 Contributors to earlier versions of Q-Chem not listed above: 
 R. D. Adamson,  B. Austin,  J. Baker,  G. J. O. Beran,  K. Brandhorst,  
 S. T. Brown,  E. F. C. Byrd,  A. K. Chakraborty,  C.-L. Cheng,  
 Siu Hung Chien,  D. M. Chipman,  D. L. Crittenden,  H. Dachsel,  
 R. J. Doerksen,  A. D. Dutoi,  L. Fusti-Molnar,  W. A. Goddard III,  
 A. Golubeva-Zadorozhnaya,  S. R. Gwaltney,  G. Hawkins,  A. Heyden,  
 S. Hirata,  G. Kedziora,  F. J. Keil,  C. Kelley,  Jihan Kim,  R. A. King,  
 R. Z. Khaliullin,  P. P. Korambath,  W. Kurlancheek,  A. M. Lee,  M. S. Lee,  
 S. V. Levchenko,  Ching Yeh Lin,  D. Liotard,  R. C. Lochan,  I. Lotan,  
 P. E. Maslen,  N. Nair,  D. P. O'Neill,  D. Neuhauser,  E. Neuscamman,  
 C. M. Oana,  R. Olson,  B. Peters,  R. Peverati,  P. A. Pieniazek,  
 Y. M. Rhee,  J. Ritchie,  M. A. Rohrdanz,  E. Rosta,  N. J. Russ,  
 H. F. Schaefer III,  N. E. Schultz,  N. Shenvi,  A. C. Simmonett,  A. Sodt,  
 D. Stuck,  K. S. Thanthiriwatte,  V. Vanovschi,  Tao Wang,  A. Warshel,  
 C. F. Williams,  Q. Wu,  X. Xu,  W. Zhang

 Please cite Q-Chem as follows:
 Y. Shao et al., Mol. Phys. 113, 184-215 (2015)
 DOI: 10.1080/00268976.2014.952696

 Q-Chem 5.1.1 for Intel X86 EM64T Linux

 Parts of Q-Chem use Armadillo 8.300.2 (Tropical Shenanigans).
 http://arma.sourceforge.net/

 Q-Chem begins on Sat Oct 13 00:59:13 2018  

node24
Host: 0

     Scratch files written to /scratch/krylov/qchem3027//
Core orbitals will be frozen
Input Ideriv = 0
Curr. Ideriv = -1
Max.  Ideriv = 0

Checking the input file for inconsistencies... 	...done.

--------------------------------------------------------------
User input:
--------------------------------------------------------------
$comment
RI-MP2/cc-pVTZ optimized geometry. 
Open-shell calculation
6-311(2+,+)G** basis with unconracted core
$end

$molecule
+1 2
    H         2.4750347531    0.0000000000    0.0000000000
    C         1.3935929418    0.0000000000    0.0000000000
    C         0.6967964709    1.2068868901    0.0000000000
    H         1.2375173766    2.1434429715    0.0000000000
    C        -0.6967964709    1.2068868901    0.0000000000
    H        -1.2375173766    2.1434429715    0.0000000000
    C        -1.3935929418    0.0000000000    0.0000000000
    H        -2.4750347531    0.0000000000    0.0000000000
    C        -0.6967964709   -1.2068868901    0.0000000000
    H        -1.2375173766   -2.1434429715    0.0000000000
    C         0.6967964709   -1.2068868901    0.0000000000
    H         1.2375173766   -2.1434429715    0.0000000000
$end

$rem
   JOB_TYPE  =  SP
   BASIS  =  general
   METHOD  =  EOM-CCSD
   CVS_EE_STATES = [0,0,0,0,0,6,6,6]  Bright transitions only
   CC_MEMORY = 80000
   cc_trans_prop = 1
   EOM_DAVIDSON_MAXVECTORS = 120
   eom_shift = 10327  281 eV
$end


$basis
H    0
S    3    1.000000
   3.38650000E+01    2.54938000E-02 
   5.09479000E+00    1.90373000E-01 
   1.15879000E+00    8.52161000E-01 
S    1    1.000000
   3.25840000E-01    1.00000000E+00 
S    1    1.000000
   1.02741000E-01    1.00000000E+00 
S    1    1.000000
   3.60000000E-02    1.00000000E+00 
P    1    1.000000
   7.50000000E-01    1.00000000E+00 
****
C    0
S    1    1.000000
   4.56324000E+03    1.96665000E-03 
S    1    1.000000
   6.82024000E+02    1.52306000E-02
S    1    1.000000   
   1.54973000E+02    7.61269000E-02 
S    1    1.000000
   4.44553000E+01    2.60801000E-01
S    1    1.000000   
   1.30290000E+01    6.16462000E-01 
S    1    1.000000
   1.82773000E+00    2.21006000E-01 
SP   3    1.000000
   2.09642000E+01    1.14660000E-01   4.02487000E-02 
   4.80331000E+00    9.19999000E-01   2.37594000E-01 
   1.45933000E+00   -3.03068000E-03   8.15854000E-01 
SP   1    1.000000
   4.83456000E-01    1.00000000E+00   1.00000000E+00 
SP   1    1.000000
   1.45585000E-01    1.00000000E+00   1.00000000E+00 
SP   1    1.000000
   4.38000000E-02    1.00000000E+00   1.00000000E+00 
SP   1    1.000000
   1.31927711E-02    1.00000000E+00   1.00000000E+00 
D    1    1.000000
   6.26000000E-01    1.00000000E+00
****
$end
--------------------------------------------------------------
 ----------------------------------------------------------------
             Standard Nuclear Orientation (Angstroms)
    I     Atom           X                Y                Z
 ----------------------------------------------------------------
    1      H       2.4750347531     0.0000000000    -0.0000000000
    2      C       1.3935929418     0.0000000000    -0.0000000000
    3      C       0.6967964709     1.2068868901     0.0000000000
    4      H       1.2375173766     2.1434429715     0.0000000000
    5      C      -0.6967964709     1.2068868901     0.0000000000
    6      H      -1.2375173766     2.1434429715     0.0000000000
    7      C      -1.3935929418     0.0000000000     0.0000000000
    8      H      -2.4750347531     0.0000000000     0.0000000000
    9      C      -0.6967964709    -1.2068868901    -0.0000000000
   10      H      -1.2375173766    -2.1434429715    -0.0000000000
   11      C       0.6967964709    -1.2068868901    -0.0000000000
   12      H       1.2375173766    -2.1434429715    -0.0000000000
 ----------------------------------------------------------------
 Molecular Point Group                 D2h   NOp =  8
 Largest Abelian Subgroup              D2h   NOp =  8
 Nuclear Repulsion Energy =   203.7187449024 hartrees
 There are       21 alpha and       20 beta electrons

 Q-Chem warning in module forms1/BasisType.C, line 1703:

 Setting pure/cartesian flag to 2111 for general basis


 Requested basis set is non-standard
 There are 102 shells and 228 basis functions
MEM_TOTAL is adjusted to CC_MEMORY + MEM_STATIC!
 Total memory of 80192MB is distributed as follows: 
   QALLOC including MEM_STATIC uses 192MB
   MEM_STATIC is set to 192MB
   CCMAN JOB total memory use is  80000MB
 Warning: actual memory use might exceed 80192MB

 Total QAlloc Memory Limit    192 MB
 Mega-Array Size       188 MB
 MEM_STATIC part       192 MB

                       Distance Matrix (Angstroms)
             H (  1)   C (  2)   C (  3)   H (  4)   C (  5)   H (  6)
   C (  2)  1.081442
   C (  3)  2.149118  1.393593
   H (  4)  2.475035  2.149118  1.081442
   C (  5)  3.393684  2.413774  1.393593  2.149118
   H (  6)  4.286886  3.393684  2.149118  2.475035  1.081442
   C (  7)  3.868628  2.787186  2.413774  3.393684  1.393593  2.149118
   H (  8)  4.950070  3.868628  3.393684  4.286886  2.149118  2.475035
   C (  9)  3.393684  2.413774  2.787186  3.868628  2.413774  3.393684
   H ( 10)  4.286886  3.393684  3.868628  4.950070  3.393684  4.286886
   C ( 11)  2.149118  1.393593  2.413774  3.393684  2.787186  3.868628
   H ( 12)  2.475035  2.149118  3.393684  4.286886  3.868628  4.950070
             C (  7)   H (  8)   C (  9)   H ( 10)   C ( 11)
   H (  8)  1.081442
   C (  9)  1.393593  2.149118
   H ( 10)  2.149118  2.475035  1.081442
   C ( 11)  2.413774  3.393684  1.393593  2.149118
   H ( 12)  3.393684  4.286886  2.149118  2.475035  1.081442

 A cutoff of  1.0D-14 yielded   4632 shell pairs
 There are     25539 function pairs (     26958 Cartesian)

 -------------------------------------------------------
 OpenMP Integral Computing Module                       
 Release: version 1.0, May 2013, Q-Chem Inc. Pittsburgh 
 -------------------------------------------------------
 Integral Job Info:
 Integral job number is                      11
 Integral operator is                         1
 short-range coefficients                     0
 long-range coefficients              100000000
 Omega coefficients                           0
 if combine SR and LR in K                    0
 Integral screening is                        0
 Integral computing path is                   2
 max size of driver memory is            800000
 size of driver memory is                593474
 size of scratch memory is              1367512
 max col of scratch BK array               1296
 max len of scratch array in speh3          155
 max len of scratch index in speh4           18
 max int batch size is                      520
 min int batch size is                       52
 fixed nKL is                                52
 max L of basis functions is                  2
 order of int derivative is                   0
 number of shells is                        102
 number of basis is                         234
 number of cartesian basis is               234
 number of contracted shell pairs          4632
 number of primitive shell pairs           6390
 maxK2 (contraction) of shell pair            9
 max number of K2 of shell pair               1
 max number of CS2 of shell pair           1374
 max number of PS2 of shell pair           1374
 mem total for path MDJ                  537338
 -------------------------------------------------------
 Smallest overlap matrix eigenvalue = 9.20E-09
 Linear dependence detected in AO basis
 Tighter screening thresholds may be required for diffuse basis sets
 Use S2THRESH > 14 and THRESH = 14 in case of SCF convergence issues
 Number of orthogonalized atomic orbitals = 221
 Maximum deviation from orthogonality = 1.215E-10

 Scale SEOQF with 1.000000e-01/1.000000e-01/1.000000e-01

 Standard Electronic Orientation quadrupole field applied
 Nucleus-field energy     =     0.0000000057 hartrees
 Guess MOs from core Hamiltonian diagonalization

 -----------------------------------------------------------------------
  General SCF calculation program by
  Eric Jon Sundstrom, Paul Horn, Yuezhi Mao, Dmitri Zuev, Alec White,
  David Stuck, Shaama M.S., Shane Yost, Joonho Lee, David Small,
  Daniel Levine, Susi Lehtola, Hugh Burton, Evgeny Epifanovsky
 -----------------------------------------------------------------------
 Hartree-Fock
 using 8 threads for integral computing
 -------------------------------------------------------
 OpenMP Integral computing Module                
 Release: version 2.0, May 2017, Q-Chem Inc. Pleasanton 
 -------------------------------------------------------
 A unrestricted SCF calculation will be
 performed using DIIS
 SCF converges when DIIS error is below 1.0e-08
 ---------------------------------------
  Cycle       Energy         DIIS error
 ---------------------------------------
    1    -187.2956430566      4.19e-02  
    2    -174.0451318530      2.21e-02  
    3    -222.2078463779      1.62e-02  
    4    -229.3995538279      5.85e-03  
    5    -230.2977004501      2.37e-03  
    6    -230.4475681081      7.55e-04  
    7    -230.4641400170      1.77e-04  
    8    -230.4652281783      3.83e-05  
    9    -230.4653636732      2.00e-05  
   10    -230.4654334671      6.41e-06  
   11    -230.4654399657      1.01e-06  
   12    -230.4654400281      3.35e-07  
   13    -230.4654400379      8.38e-08  
   14    -230.4654400382      2.45e-08  
   15    -230.4654400386      5.51e-09  Convergence criterion met
 ---------------------------------------
 SCF time:   CPU 35.83s  wall 6.00s 
<S^2> =          0.872018057
 SCF   energy in the final basis set =     -230.4654400386
 Total energy in the final basis set =     -230.4654400386


 ------------------------------------------------------------------------------

   CCMAN2: suite of methods based on coupled cluster
           and equation of motion theories.

   Components:
   * libvmm-1.3-trunk
     by Evgeny Epifanovsky, Ilya Kaliman.
   * libtensor-2.5-trunk
     by Evgeny Epifanovsky, Michael Wormit, Dmitry Zuev, Sam Manzer, 
        Ilya Kaliman.
   * libcc-2.5-trunk
     by Evgeny Epifanovsky, Arik Landau, Tomasz Kus, Kirill Khistyaev, 
        Dmitry Zuev, Prashant Manohar, Xintian Feng, Anna Krylov, 
        Matthew Goldey, Alec White, Thomas Jagau, Kaushik Nanda, 
        Anastasia Gunina, Alexander Kunitsa, Joonho Lee.

   CCMAN original authors:
   Anna I. Krylov, C. David Sherrill, Steven R. Gwaltney,
   Edward F. C. Byrd (2000)
   Sergey V. Levchenko, Lyudmila V. Slipchenko, Tao Wang,
   Ana-Maria C. Cristian (2003)
   Piotr A. Pieniazek, C. Melania Oana, Evgeny Epifanovsky (2007)
   Prashant Manohar (2009)

 ------------------------------------------------------------------------------


 Allocating and initializing 80000MB of RAM...
 Calculation will run on 8 cores.


 Alpha MOs, Unrestricted
 -- Occupied --                  
-11.495 -11.495 -11.494 -11.494 -11.442 -11.442  -1.403  -1.282
  1 B2u   1 Ag    1 B3u   1 B1g   2 B3u   2 Ag    3 Ag    2 B2u                
 -1.238  -1.063  -1.057  -0.938  -0.866  -0.860  -0.830  -0.801
  3 B3u   2 B1g   4 Ag    5 Ag    4 B3u   3 B2u   4 B2u   5 B3u                
 -0.757  -0.723  -0.720  -0.625  -0.547
  1 B1u   3 B1g   6 Ag    1 B3g   1 B2g                                        
 -- Virtual --                   
 -0.135  -0.089  -0.082  -0.073  -0.070  -0.068  -0.053  -0.052
  1 Au    7 Ag    2 B1u   5 B2u   6 B3u   3 B1u   8 Ag    4 B1g                
 -0.051  -0.048  -0.045  -0.028  -0.028  -0.026  -0.025  -0.023
  9 Ag    2 B3g   2 B2g   6 B2u   7 B3u   7 B2u  10 Ag    8 B3u                
 -0.023  -0.022  -0.010  -0.008  -0.008  -0.007  -0.003   0.003
  2 Au    4 B1u   8 B2u   5 B1g  11 Ag    9 B3u   3 B2g   6 B1g                
  0.004   0.024   0.027   0.028   0.040   0.048   0.049   0.074
 12 Ag    5 B1u  13 Ag   10 B3u   3 B3g   4 B2g   9 B2u  14 Ag                 
  0.076   0.079   0.079   0.086   0.088   0.095   0.097   0.105
  7 B1g   5 B2g  10 B2u   3 Au   11 B3u   6 B1u  15 Ag   11 B2u                
  0.112   0.121   0.126   0.127   0.127   0.142   0.144   0.152
 12 B3u   8 B1g  16 Ag   13 B3u  12 B2u   9 B1g  17 Ag   14 B3u                
  0.169   0.172   0.191   0.245   0.250   0.257   0.261   0.269
  6 B2g  18 Ag   10 B1g  13 B2u  15 B3u  16 B3u  11 B1g  19 Ag                 
  0.340   0.341   0.342   0.349   0.429   0.435   0.511   0.529
 14 B2u  12 B1g  17 B3u  20 Ag   15 B2u  21 Ag   18 B3u  16 B2u                
  0.530   0.549   0.551   0.555   0.556   0.558   0.586   0.601
  7 B1u  13 B1g  19 B3u  22 Ag   14 B1g   4 B3g   7 B2g  23 Ag                 
  0.611   0.642   0.690   0.704   0.735   0.738   0.743   0.753
  4 Au    8 B1u   8 B2g  20 B3u  21 B3u  17 B2u  15 B1g  24 Ag                 
  0.775   0.809   0.823   0.863   0.883   0.884   0.893   0.902
 25 Ag   18 B2u  22 B3u  16 B1g  26 Ag   23 B3u  19 B2u  24 B3u                
  0.918   0.938   0.992   0.995   1.003   1.079   1.111   1.155
 17 B1g   9 B1u  18 B1g  27 Ag    5 B3g   6 B3g   9 B2g  10 B1u                
  1.163   1.270   1.332   1.498   1.557   1.564   1.582   1.619
  5 Au   25 B3u  28 Ag   20 B2u  29 Ag   21 B2u  26 B3u  10 B2g                
  1.623   1.623   1.693   1.699   1.705   1.720   1.779   1.826
  6 Au   11 B1u  30 Ag   19 B1g  22 B2u  27 B3u  12 B1u   7 B3g                
  1.851   1.890   1.897   1.923   1.987   2.010   2.026   2.030
 11 B2g  20 B1g  31 Ag   23 B2u  12 B2g   8 B3g  24 B2u  28 B3u                
  2.036   2.085   2.116   2.124   2.138   2.165   2.412   2.424
 21 B1g  29 B3u  22 B1g  32 Ag    7 Au   13 B1u  13 B2g   8 Au                 
  2.521   2.533   2.560   2.609   2.627   2.715   2.725   2.767
 23 B1g  33 Ag   34 Ag   25 B2u  30 B3u  31 B3u  26 B2u  32 B3u                
  2.772   2.817   2.819   2.835   2.837   2.839   2.852   2.950
 35 Ag   33 B3u  27 B2u  24 B1g  14 B1u  34 B3u  36 Ag    9 B3g                
  2.985   3.039   3.046   3.084   3.106   3.121   3.245   3.320
 14 B2g   9 Au   25 B1g  15 B1u  26 B1g  37 Ag   15 B2g  28 B2u                
  3.528   3.549   3.671   3.688   3.706   3.844   4.158   4.182
 38 Ag   27 B1g  29 B2u  35 B3u  39 Ag   36 B3u  28 B1g  40 Ag                 
  4.254   4.298   4.305   4.898   5.037   5.215   5.229   5.535
 37 B3u  30 B2u  38 B3u  41 Ag   29 B1g  31 B2u  39 B3u  30 B1g                
  5.564   5.973  20.414  20.467  20.498  20.608  20.641  20.918
 42 Ag   40 B3u  43 Ag   32 B2u  41 B3u  31 B1g  44 Ag   42 B3u                
 79.986  80.044  80.073  80.164  80.196  80.404 321.830 321.882
 45 Ag   33 B2u  43 B3u  32 B1g  46 Ag   44 B3u  47 Ag   34 B2u                
321.909 321.985 322.015 322.1821431.4011431.4461431.4711431.532
 45 B3u  33 B1g  48 Ag   46 B3u  49 Ag   35 B2u  47 B3u  34 B1g                
*******1431.7008749.6418749.6768749.7008749.7468749.7758749.884
 50 Ag   48 B3u  51 Ag   36 B2u  49 B3u  35 B1g  52 Ag   50 B3u                

 Beta MOs, Unrestricted
 -- Occupied --                  
-11.487 -11.487 -11.486 -11.486 -11.449 -11.449  -1.377  -1.242
  1 Ag    1 B2u   1 B3u   1 B1g   2 B3u   2 Ag    3 Ag    3 B3u                
 -1.229  -1.051  -1.042  -0.934  -0.860  -0.853  -0.821  -0.803
  2 B2u   4 Ag    2 B1g   5 Ag    4 B3u   3 B2u   4 B2u   5 B3u                
 -0.721  -0.716  -0.670  -0.569
  3 B1g   6 Ag    1 B1u   1 B2g                                                
 -- Virtual --                   
 -0.249  -0.089  -0.073  -0.072  -0.070  -0.059  -0.052  -0.052
  1 B3g   7 Ag    5 B2u   2 B1u   6 B3u   3 B1u   8 Ag    4 B1g                
 -0.051  -0.046  -0.045  -0.045  -0.028  -0.028  -0.025  -0.024
  9 Ag    2 B3g   2 B2g   1 Au    6 B2u   7 B3u   7 B2u  10 Ag                 
 -0.024  -0.021  -0.018  -0.009  -0.008  -0.008  -0.007  -0.003
  8 B3u   4 B1u   2 Au    8 B2u  11 Ag    5 B1g   9 B3u   3 B2g                
  0.004   0.004   0.028   0.029   0.031   0.047   0.049   0.051
  6 B1g  12 Ag   10 B3u   5 B1u  13 Ag    4 B2g   9 B2u   3 B3g                
  0.074   0.077   0.088   0.088   0.089   0.097   0.098   0.103
 14 Ag    7 B1g  10 B2u  11 B3u   5 B2g   6 B1u  15 Ag    3 Au                 
  0.108   0.112   0.123   0.126   0.127   0.127   0.144   0.144
 11 B2u  12 B3u   8 B1g  16 Ag   13 B3u  12 B2u   9 B1g  17 Ag                 
  0.153   0.173   0.191   0.195   0.247   0.251   0.262   0.269
 14 B3u  18 Ag   10 B1g   6 B2g  13 B2u  15 B3u  16 B3u  19 Ag                 
  0.277   0.343   0.343   0.344   0.349   0.431   0.437   0.527
 11 B1g  12 B1g  17 B3u  14 B2u  20 Ag   15 B2u  21 Ag   18 B3u                
  0.547   0.551   0.552   0.553   0.560   0.566   0.586   0.596
 19 B3u  16 B2u   7 B1u  13 B1g  22 Ag   14 B1g   7 B2g   4 B3g                
  0.605   0.637   0.646   0.702   0.707   0.739   0.739   0.750
 23 Ag    8 B1u   4 Au    8 B2g  20 B3u  21 B3u  17 B2u  15 B1g                
  0.753   0.780   0.816   0.822   0.870   0.881   0.890   0.903
 24 Ag   25 Ag   18 B2u  22 B3u  16 B1g  26 Ag   23 B3u  19 B2u                
  0.903   0.920   0.955   0.997   1.001   1.030   1.109   1.110
 24 B3u  17 B1g   9 B1u  18 B1g  27 Ag    5 B3g   9 B2g   6 B3g                
  1.172   1.179   1.274   1.346   1.501   1.565   1.572   1.581
  5 Au   10 B1u  25 B3u  28 Ag   20 B2u  29 Ag   21 B2u  26 B3u                
  1.623   1.630   1.636   1.693   1.705   1.717   1.724   1.785
 10 B2g   6 Au   11 B1u  30 Ag   19 B1g  27 B3u  22 B2u  12 B1u                
  1.840   1.850   1.896   1.897   1.924   2.010   2.015   2.032
  7 B3g  11 B2g  20 B1g  31 Ag   23 B2u  12 B2g   8 B3g  28 B3u                
  2.036   2.036   2.089   2.125   2.126   2.156   2.165   2.421
 21 B1g  24 B2u  29 B3u  22 B1g  32 Ag    7 Au   13 B1u  13 B2g                
  2.435   2.529   2.533   2.561   2.610   2.626   2.718   2.726
  8 Au   23 B1g  33 Ag   34 Ag   25 B2u  30 B3u  31 B3u  26 B2u                
  2.769   2.773   2.819   2.820   2.836   2.839   2.852   2.856
 32 B3u  35 Ag   33 B3u  27 B2u  24 B1g  34 B3u  36 Ag   14 B1u                
  2.980   2.986   3.047   3.070   3.079   3.110   3.121   3.256
  9 B3g  14 B2g  25 B1g   9 Au   15 B1u  26 B1g  37 Ag   15 B2g                
  3.324   3.536   3.550   3.678   3.689   3.710   3.847   4.166
 28 B2u  38 Ag   27 B1g  29 B2u  35 B3u  39 Ag   36 B3u  28 B1g                
  4.182   4.260   4.304   4.307   4.904   5.043   5.223   5.231
 40 Ag   37 B3u  30 B2u  38 B3u  41 Ag   29 B1g  31 B2u  39 B3u                
  5.546   5.563   5.977  20.417  20.472  20.497  20.613  20.640
 30 B1g  42 Ag   40 B3u  43 Ag   32 B2u  41 B3u  31 B1g  44 Ag                 
 20.920  79.987  80.045  80.072  80.165  80.195  80.405 321.830
 42 B3u  45 Ag   33 B2u  43 B3u  32 B1g  46 Ag   44 B3u  47 Ag                 
321.883 321.909 321.985 322.015 322.1821431.4011431.4461431.471
 34 B2u  45 B3u  33 B1g  48 Ag   46 B3u  49 Ag   35 B2u  47 B3u                
*******1431.5621431.7008749.6418749.6768749.7008749.7468749.775
 34 B1g  50 Ag   48 B3u  51 Ag   36 B2u  49 B3u  35 B1g  52 Ag                 
*******
 50 B3u                                                                        

 Occupation and symmetry of molecular orbitals

 Point group: D2h (8 irreducible representations).

                           Ag   B1g  B2g  B3g  Au   B1u  B2u  B3u   All 
 ------------------------------------------------------------------------
 All molecular orbitals:
  - Alpha                  52   35   15   9    9    15   36   50    221 
  - Beta                   52   35   15   9    9    15   36   50    221 
 ------------------------------------------------------------------------
 Alpha orbitals:
  - Frozen occupied        2    1    0    0    0    0    1    2     6   
  - Active occupied        4    2    1    1    0    1    3    3     15  
  - Active virtual         46   32   14   8    9    14   32   45    200 
  - Frozen virtual         0    0    0    0    0    0    0    0     0   
 ------------------------------------------------------------------------
 Beta orbitals:
  - Frozen occupied        2    1    0    0    0    0    1    2     6   
  - Active occupied        4    2    1    0    0    1    3    3     14  
  - Active virtual         46   32   14   9    9    14   32   45    201 
  - Frozen virtual         0    0    0    0    0    0    0    0     0   
 ------------------------------------------------------------------------

 Import integrals:   CPU 0.00 s  wall 0.00 s

 Import integrals:   CPU 728.98 s  wall 113.49 s

 MP2 amplitudes:   CPU 7.41 s  wall 2.58 s

Running a double precision version
           CCSD T amplitudes will be solved using DIIS.

           Start     Size      MaxIter   EConv     TConv     
           3         7         100       1.00e-06  1.00e-04  
 ------------------------------------------------------------------------------
           Energy (a.u.)   Ediff      Tdiff       Comment
 ------------------------------------------------------------------------------
          -231.23762517                           
     1    -231.25637952   1.88e-02   8.66e-01     
     2    -231.27995239   2.36e-02   1.07e-01     
     3    -231.28226540   2.31e-03   3.89e-02     
     4    -231.28538591   3.12e-03   1.46e-02     Switched to DIIS steps.
     5    -231.28683771   1.45e-03   1.30e-02     
     6    -231.28701909   1.81e-04   4.21e-03     
     7    -231.28704419   2.51e-05   1.19e-03     
     8    -231.28706063   1.64e-05   5.00e-04     
     9    -231.28706152   8.91e-07   1.09e-04     
    10    -231.28706197   4.47e-07   3.83e-05     
 ------------------------------------------------------------------------------
          -231.28706197                           CCSD T converged.

End of double precision
 SCF energy                 = -230.46544004
 MP2 energy                 = -231.23762517
 CCSD correlation energy     =   -0.82162193
 CCSD total energy           = -231.28706197

 CCSD  T1^2 = 0.0256  T2^2 = 0.3219  Leading amplitudes:

 Amplitude    Orbitals with energies
  0.0859       1 (B1u) B                 ->    3 (B1u) B                  
              -0.6703                         -0.0590                     
  0.0536       1 (B1u) B                 ->    2 (B1u) B                  
              -0.6703                         -0.0715                     
 -0.0501       1 (B2g) B                 ->    6 (B2g) B                  
              -0.5693                          0.1954                     
 -0.0415       1 (B1u) A                 ->    2 (B1u) A                  
              -0.7568                         -0.0824                     

 Amplitude    Orbitals with energies
  0.0665       1 (B2g) A     1 (B1u) B   ->    1 (Au) A      1 (B3g) B    
              -0.5472       -0.6703           -0.1349       -0.2490       
 -0.0665       1 (B2g) A     1 (B1u) B   ->    1 (B3g) B     1 (Au) A     
              -0.5472       -0.6703           -0.2490       -0.1349       
 -0.0665       1 (B1u) B     1 (B2g) A   ->    1 (Au) A      1 (B3g) B    
              -0.6703       -0.5472           -0.1349       -0.2490       
  0.0665       1 (B1u) B     1 (B2g) A   ->    1 (B3g) B     1 (Au) A     
              -0.6703       -0.5472           -0.2490       -0.1349       

 Computing CCSD intemediates for later calculations in double precision
 Finished.

Running a double precision version
           CCSD Lambda amplitudes will be solved using DIIS.
           Start     Size      MaxIter   EConv     LConv     
           3         7         100       1.00e-06  1.00e-04  
 ------------------------------------------------------------------------------
            Enorm      Ldiff       Comment
 ------------------------------------------------------------------------------
     1     5.46e-02   4.41e-02     
     2     1.03e-02   2.90e-03     
     3     4.57e-03   2.04e-03     
     4     1.98e-03   9.36e-04     Switched to DIIS steps.
     5     6.87e-04   5.50e-04     
     6     2.59e-04   1.69e-04     
     7     1.01e-04   5.27e-05     
     8     3.38e-05   2.12e-05     
     9     1.12e-05   6.53e-06     
    10     4.22e-06   1.86e-06     
    11     1.28e-06   4.92e-07     
    12     5.11e-07   6.11e-08     
 ------------------------------------------------------------------------------
                                   CCSD Lambda converged.

 CCSD calculation:   CPU 1154.55 s  wall 173.39 s

        Solving for CVS-EOMEE-CCSD B1u transitions.

        CVS-EOMEE-CCSD/MP2 right amplitudes will be solved using Davidson.
        Amplitudes will be solved using shifted  algorithm.
     Hard-coded thresholds: 
     LinDepThresh=1.00e-15  NormThresh=1.00e-06  ReorthogonThresh=1.00e-02

      Roots     MaxVec    MaxIter   Precond   Conv      Shift    
      6         120       60        1         1.00e-05  1.03e+01  
 ------------------------------------------------------------------------------
      Iter ConvRoots NVecs ResNorm Current eigenvalues (eV)
 ------------------------------------------------------------------------------
      0    0      6     2.02e+00   296.7968   300.7785   300.9368   302.1591   306.2800   306.5072   
      1    0      12    4.74e+00   293.6246   297.6896   297.8702   299.0735   303.4478   303.6889   
      2    0      18    1.40e-01   282.6890   286.8538   287.3918   288.0610   292.3678   292.6339   
      3    0      24    2.48e-02   281.7661   285.6631   286.4571   286.9341   291.6861   291.9397   
      4    0      30    1.44e-02   281.5497   285.2645   286.2227   286.6018   291.5936   291.8407   
      5    0      36    1.12e-02   281.4290   285.0626   286.0753   286.4015   291.3615   291.6172   
      6    0      42    2.91e-02   281.3843   285.0250   285.9967   286.3627   289.8267   291.1799   
      7    0      48    3.06e-02   281.3721   285.0169   285.9529   286.3541   288.3700   290.5058   
      8    0      54    1.39e-02   281.3687   285.0140   285.9225   286.3513   287.8826   289.3095   
      9    0      60    5.05e-03   281.3673   285.0119   285.9092   286.3503   287.6779   288.7642   
      10   3      66    2.22e-03   281.3670*  285.0114*  285.9048   286.3503*  287.6253   288.5418   
      11   3      69    6.72e-04   281.3670*  285.0114*  285.9042   286.3503*  287.5960   288.4709   
      12   3      72    3.25e-04   281.3672*  285.0114*  285.9043   286.3503*  287.5920   288.4394   
Found complex roots...
      13   4      75    1.67e-04   281.3672*  285.0114*  285.9040*  286.3503*  287.5862   288.4293   
      14   4      77    9.48e-05   281.3672*  285.0114*  285.9038*  286.3503*  287.5784   288.4281   
      15   4      79    6.07e-05   281.3672*  285.0114*  285.9038*  286.3503*  287.5748   288.4254   
      16   4      81    2.29e-05   281.3672*  285.0114*  285.9039*  286.3503*  287.5741   288.4256   
Found complex roots...
      17   5      83    1.36e-05   281.3672*  285.0114*  285.9039*  286.3503*  287.5727   288.4256*  
      18   5      84    5.93e-06   281.3672*  285.0114*  285.9038*  286.3503*  287.5735   288.4257*  
      19   6      85    4.21e-06   281.3672*  285.0114*  285.9038*  286.3503*  287.5735*  288.4256*  

     Davidson procedure converged

 EOMEE transition 1/B1u
 Total energy = -220.94700628 a.u.  Excitation energy = 281.3672 eV.
 R0^2 = 0.0000  R1^2 = 0.8573  R2_CCVV^2 = 0.0018  R2_COVV^2 = 0.0704  Res^2 = 3.46e-07
 Conv-d = yes

 Amplitude    Transitions between orbitals
 -0.8278       1 (B2u) B                 ->    1 (B3g) B                  
  0.1847       1 (B1g) B                 ->    1 (Au) B                   
 -0.1567       1 (Ag) B                  ->    3 (B1u) B                  
 -0.1137       1 (B3u) B                 ->    6 (B2g) B                  
 -0.1114       1 (B2u) B                 ->    3 (B3g) B                  
 -0.1014       1 (B2u) B                 ->    4 (B3g) B                  

              Summary of significant orbitals:

               Number  Type             Irrep      Energy
               1       Occ  Beta        1 (Ag)    -11.4869
               4       Occ  Beta        1 (B1g)    -11.4858
               2       Occ  Beta        1 (B2u)    -11.4869
               3       Occ  Beta        1 (B3u)    -11.4858
               72      Vir  Beta        6 (B2g)      0.1954
               21      Vir  Beta        1 (B3g)     -0.2490
               52      Vir  Beta        3 (B3g)      0.0506
               92      Vir  Beta        4 (B3g)      0.5956
               32      Vir  Beta        1 (Au)     -0.0451
               26      Vir  Beta        3 (B1u)     -0.0590


 EOMEE transition 2/B1u
 Total energy = -220.81308387 a.u.  Excitation energy = 285.0114 eV.
 R0^2 = 0.0000  R1^2 = 0.8649  R2_CCVV^2 = 0.0018  R2_COVV^2 = 0.0666  Res^2 = 4.90e-06
 Conv-d = yes

 Amplitude    Transitions between orbitals
  0.7130       2 (Ag) A                  ->    2 (B1u) A                  
 -0.2361       2 (B3u) A                 ->    6 (B2g) A                  
 -0.2163       2 (B3u) A                 ->    5 (B2g) A                  
 -0.2101       2 (Ag) B                  ->    3 (B1u) B                  
 -0.2035       2 (Ag) A                  ->    6 (B1u) A                  
  0.1796       2 (Ag) A                  ->    3 (B1u) A                  
 -0.1724       2 (Ag) B                  ->    2 (B1u) B                  
  0.1482       2 (Ag) A                  ->    8 (B1u) A                  
  0.1234       2 (Ag) A                  ->    4 (B1u) A                  
 -0.1060       2 (B3u) A                 ->    8 (B2g) A                  
  0.1032       2 (B3u) B                 ->    6 (B2g) B                  

              Summary of significant orbitals:

               Number  Type             Irrep      Energy
               6       Occ  Alpha       2 (Ag)    -11.4422
               5       Occ  Alpha       2 (B3u)    -11.4422
               6       Occ  Beta        2 (Ag)    -11.4490
               5       Occ  Beta        2 (B3u)    -11.4491
               55      Vir  Alpha       5 (B2g)      0.0785
               70      Vir  Alpha       6 (B2g)      0.1687
               96      Vir  Alpha       8 (B2g)      0.6899
               24      Vir  Alpha       2 (B1u)     -0.0824
               27      Vir  Alpha       3 (B1u)     -0.0676
               39      Vir  Alpha       4 (B1u)     -0.0217
               59      Vir  Alpha       6 (B1u)      0.0950
               95      Vir  Alpha       8 (B1u)      0.6419
               72      Vir  Beta        6 (B2g)      0.1954
               24      Vir  Beta        2 (B1u)     -0.0715
               26      Vir  Beta        3 (B1u)     -0.0590


 EOMEE transition 3/B1u
 Total energy = -220.78028886 a.u.  Excitation energy = 285.9038 eV.
 R0^2 = 0.0000  R1^2 = 0.8383  R2_CCVV^2 = 0.0018  R2_COVV^2 = 0.0800  Res^2 = 1.37e-07
 Conv-d = yes

 Amplitude    Transitions between orbitals
 -0.7605       1 (B1g) A                 ->    1 (Au) A                   
  0.2828       1 (Ag) A                  ->    2 (B1u) A                  
  0.1896       1 (B3u) A                 ->    6 (B2g) A                  
  0.1652       1 (B3u) A                 ->    5 (B2g) A                  
  0.1489       1 (B2u) B                 ->    1 (B3g) B                  
  0.1267       1 (B1g) A                 ->    3 (Au) A                   
 -0.1054       1 (B1g) A                 ->    4 (Au) A                   

              Summary of significant orbitals:

               Number  Type             Irrep      Energy
               2       Occ  Alpha       1 (Ag)    -11.4950
               4       Occ  Alpha       1 (B1g)    -11.4938
               3       Occ  Alpha       1 (B3u)    -11.4938
               2       Occ  Beta        1 (B2u)    -11.4869
               55      Vir  Alpha       5 (B2g)      0.0785
               70      Vir  Alpha       6 (B2g)      0.1687
               22      Vir  Alpha       1 (Au)     -0.1349
               57      Vir  Alpha       3 (Au)      0.0863
               94      Vir  Alpha       4 (Au)      0.6110
               24      Vir  Alpha       2 (B1u)     -0.0824
               21      Vir  Beta        1 (B3g)     -0.2490


 EOMEE transition 4/B1u
 Total energy = -220.76388159 a.u.  Excitation energy = 286.3503 eV.
 R0^2 = 0.0000  R1^2 = 0.8310  R2_CCVV^2 = 0.0018  R2_COVV^2 = 0.0836  Res^2 = 8.71e-06
 Conv-d = yes

 Amplitude    Transitions between orbitals
  0.5871       2 (Ag) B                  ->    3 (B1u) B                  
  0.4598       2 (Ag) B                  ->    2 (B1u) B                  
  0.2691       2 (Ag) A                  ->    2 (B1u) A                  
 -0.2237       2 (B3u) B                 ->    6 (B2g) B                  
  0.2165       2 (Ag) B                  ->    6 (B1u) B                  
  0.1803       2 (Ag) B                  ->    4 (B1u) B                  
  0.1421       2 (B3u) B                 ->    5 (B2g) B                  
 -0.1137       2 (Ag) B                  ->    8 (B1u) B                  

              Summary of significant orbitals:

               Number  Type             Irrep      Energy
               6       Occ  Alpha       2 (Ag)    -11.4422
               6       Occ  Beta        2 (Ag)    -11.4490
               5       Occ  Beta        2 (B3u)    -11.4491
               24      Vir  Alpha       2 (B1u)     -0.0824
               57      Vir  Beta        5 (B2g)      0.0895
               72      Vir  Beta        6 (B2g)      0.1954
               24      Vir  Beta        2 (B1u)     -0.0715
               26      Vir  Beta        3 (B1u)     -0.0590
               38      Vir  Beta        4 (B1u)     -0.0208
               58      Vir  Beta        6 (B1u)      0.0968
               94      Vir  Beta        8 (B1u)      0.6373


 EOMEE transition 5/B1u
 Total energy = -220.71893167 a.u.  Excitation energy = 287.5735 eV.
 R0^2 = 0.0000  R1^2 = 0.8088  R2_CCVV^2 = 0.0017  R2_COVV^2 = 0.0947  Res^2 = 6.45e-06
 Conv-d = yes

 Amplitude    Transitions between orbitals
  0.5863       1 (B1g) B                 ->    1 (Au) B                   
 -0.2829       1 (B1g) B                 ->    2 (Au) B                   
  0.2810       1 (B2u) B                 ->    1 (B3g) B                  
 -0.2576       1 (Ag) B                  ->    3 (B1u) B                  
 -0.2310       1 (B1g) B                 ->    3 (Au) B                   
 -0.2129       1 (B3u) B                 ->    6 (B2g) B                  
  0.2037       1 (B1g) A                 ->    1 (Au) A                   
 -0.1661       1 (Ag) B                  ->    2 (B1u) B                  
  0.1440       1 (B3u) B                 ->    5 (B2g) B                  
  0.1130       1 (B1g) B                 ->    4 (Au) B                   

              Summary of significant orbitals:

               Number  Type             Irrep      Energy
               4       Occ  Alpha       1 (B1g)    -11.4938
               1       Occ  Beta        1 (Ag)    -11.4869
               4       Occ  Beta        1 (B1g)    -11.4858
               2       Occ  Beta        1 (B2u)    -11.4869
               3       Occ  Beta        1 (B3u)    -11.4858
               22      Vir  Alpha       1 (Au)     -0.1349
               57      Vir  Beta        5 (B2g)      0.0895
               72      Vir  Beta        6 (B2g)      0.1954
               21      Vir  Beta        1 (B3g)     -0.2490
               32      Vir  Beta        1 (Au)     -0.0451
               39      Vir  Beta        2 (Au)     -0.0178
               60      Vir  Beta        3 (Au)      0.1031
               95      Vir  Beta        4 (Au)      0.6458
               24      Vir  Beta        2 (B1u)     -0.0715
               26      Vir  Beta        3 (B1u)     -0.0590


 EOMEE transition 6/B1u
 Total energy = -220.68761515 a.u.  Excitation energy = 288.4256 eV.
 R0^2 = 0.0000  R1^2 = 0.7591  R2_CCVV^2 = 0.0016  R2_COVV^2 = 0.1196  Res^2 = 4.73e-06
 Conv-d = yes

 Amplitude    Transitions between orbitals
 -0.7546       1 (Ag) A                  ->    2 (B1u) A                  
 -0.3171       1 (B1g) A                 ->    1 (Au) A                   
 -0.1509       1 (Ag) A                  ->    3 (B1u) A                  
  0.1502       1 (Ag) A                  ->    6 (B1u) A                  
 -0.1122       1 (Ag) A                  ->    4 (B1u) A                  

              Summary of significant orbitals:

               Number  Type             Irrep      Energy
               2       Occ  Alpha       1 (Ag)    -11.4950
               4       Occ  Alpha       1 (B1g)    -11.4938
               22      Vir  Alpha       1 (Au)     -0.1349
               24      Vir  Alpha       2 (B1u)     -0.0824
               27      Vir  Alpha       3 (B1u)     -0.0676
               39      Vir  Alpha       4 (B1u)     -0.0217
               59      Vir  Alpha       6 (B1u)      0.0950


      CVS-EOM-CCSD/MP2 left amplitudes will be solved using Davidson.
        Amplitudes will be solved using MOM  algorithm.
     Hard-coded thresholds: 
     LinDepThresh=1.00e-15  NormThresh=1.00e-06  ReorthogonThresh=1.00e-02

      Roots     MaxVec    MaxIter   Precond   Conv      Shift    
      6         120       60        1         1.00e-05  1.03e+01  
 ------------------------------------------------------------------------------
      Iter ConvRoots NVecs ResNorm Current eigenvalues (eV)
 ------------------------------------------------------------------------------
      0    0      6     2.07e-02   281.3672   285.0114   285.9038   286.3503   287.5735   288.4256   
      1    0      12    3.54e-01   281.3672   285.0114   285.9038   286.3501   287.5734   288.4255   
      2    0      18    1.84e-02   281.3672   285.0116   285.9038   286.3502   287.5734   288.4255   
      3    0      24    2.65e-04   281.3672   285.0115   285.9038   286.3501   287.5733   288.4255   
      4    0      30    7.48e-04   281.3672   285.0115   285.9038   286.3500   287.5733   288.4255   
      5    0      36    1.24e-04   281.3672   285.0115   285.9038   286.3500   287.5733   288.4255   
      6    2      42    5.61e-05   281.3672*  285.0115   285.9038*  286.3500   287.5733   288.4255   
      7    2      46    8.47e-05   281.3672*  285.0115   285.9038*  286.3500   287.5733   288.4255   
      8    5      50    4.79e-06   281.3672*  285.0115*  285.9038*  286.3500*  287.5734   288.4255*  
      9    5      51    9.19e-06   281.3672*  285.0115*  285.9038*  286.3500*  287.5734   288.4255*  
      10   6      52    2.53e-06   281.3672*  285.0115*  285.9038*  286.3500*  287.5734*  288.4255*  

     Davidson procedure converged

        Solving for CVS-EOMEE-CCSD B2u transitions.

        CVS-EOMEE-CCSD/MP2 right amplitudes will be solved using Davidson.
        Amplitudes will be solved using shifted  algorithm.
     Hard-coded thresholds: 
     LinDepThresh=1.00e-15  NormThresh=1.00e-06  ReorthogonThresh=1.00e-02

      Roots     MaxVec    MaxIter   Precond   Conv      Shift    
      6         120       60        1         1.00e-05  1.03e+01  
 ------------------------------------------------------------------------------
      Iter ConvRoots NVecs ResNorm Current eigenvalues (eV)
 ------------------------------------------------------------------------------
      0    0      6     1.95e+00   306.1935   306.2716   306.3765   306.4315   307.2336   307.4039   
      1    0      12    6.03e+00   303.3524   303.4579   303.5519   303.6519   304.3891   304.5758   
      2    0      18    1.09e-01   292.1925   292.3171   292.4153   292.6086   293.1996   293.4131   
      3    0      24    1.61e-02   291.4717   291.5301   291.7441   291.7454   292.5194   292.7297   
      4    0      30    1.28e-02   291.2798   291.4458   291.5341   291.6531   292.4360   292.6410   
      5    0      36    2.66e-02   290.8097   291.1622   291.2341   291.4434   292.1906   292.4212   
      6    0      42    6.95e-03   290.4864   290.9263   291.0716   291.2827   291.9087   292.1694   
      7    0      48    4.34e-03   290.3785   290.8282   291.0418   291.2432   291.8282   292.0695   
      8    0      54    1.38e-03   290.3012   290.7785   291.0297   291.2291   291.7978   292.0374   
      9    0      60    1.90e-03   290.2159   290.7442   291.0274   291.2280   291.7820   292.0273   
Found complex roots...
      10   0      66    1.11e-03   290.1587   290.7078   291.0258   291.2269   291.7664   292.0141   
      11   0      72    1.94e-03   290.1300   290.6761   291.0251   291.2259   291.7593   291.8484   
      12   2      78    7.84e-04   290.1200   290.6627   291.0249*  291.2255*  291.7574   291.7858   
      13   2      82    5.53e-04   290.1155   290.6579   291.0249*  291.2254*  291.7280   291.7569   
      14   2      86    6.14e-04   290.1116   290.6540   291.0249*  291.2254*  291.6799   291.7559   
      15   3      90    4.03e-04   290.1097   290.6502   291.0249*  291.2254*  291.6408   291.7560*  
      16   3      93    3.49e-04   290.1095   290.6500   291.0249*  291.2254*  291.6076   291.7560*  
      17   3      96    2.08e-04   290.1093   290.6490   291.0249*  291.2254*  291.5869   291.7560*  
      18   3      99    1.43e-04   290.1090*  290.6487   291.0249*  291.2254   291.5725   291.7560*  
      19   4      102   8.77e-05   290.1089*  290.6486   291.0249*  291.2252*  291.5628   291.7560*  
      20   4      104   5.19e-05   290.1088*  290.6484*  291.0249*  291.2252*  291.5572   291.7560   
      21   4      106   3.55e-05   290.1088*  290.6485*  291.0249*  291.2252*  291.5533   291.7560   
      22   5      108   2.08e-05   290.1088*  290.6486*  291.0249*  291.2252*  291.5520   291.7560*  
      23   5      109   1.63e-05   290.1088*  290.6486*  291.0249*  291.2252*  291.5506   291.7560*  
      24   5      110   1.09e-05   290.1088*  290.6486*  291.0249*  291.2252*  291.5492   291.7560*  
      25   5      111   8.09e-06   290.1088*  290.6486*  291.0249*  291.2252*  291.5487   291.7560*  
      26   5      112   6.43e-06   290.1088*  290.6486*  291.0249*  291.2252*  291.5485   291.7560*  
      27   5      113   4.89e-06   290.1088*  290.6486*  291.0249*  291.2252*  291.5482   291.7560*  
      28   6      114   3.84e-06   290.1088*  290.6486*  291.0249*  291.2252*  291.5481*  291.7560*  

     Davidson procedure converged

 EOMEE transition 1/B2u
 Total energy = -220.62575826 a.u.  Excitation energy = 290.1088 eV.
 R0^2 = 0.0000  R1^2 = 0.8246  R2_CCVV^2 = 0.0016  R2_COVV^2 = 0.0869  Res^2 = 4.97e-07
 Conv-d = yes

 Amplitude    Transitions between orbitals
  0.4226       1 (B2u) B                 ->    7 (Ag) B                    
 -0.2579       1 (B2u) B                 ->    10 (Ag) B                   
  0.2559       1 (Ag) B                  ->    5 (B2u) B                   
  0.2507       1 (B2u) A                 ->    7 (Ag) A                    
  0.1979       1 (B2u) B                 ->    15 (Ag) B                   
 -0.1605       1 (Ag) A                  ->    5 (B2u) A                   
 -0.1604       1 (B2u) A                 ->    10 (Ag) A                   
  0.1531       1 (B1g) B                 ->    6 (B3u) B                   
 -0.1503       1 (Ag) B                  ->    8 (B2u) B                   
 -0.1476       1 (Ag) B                  ->    11 (B2u) B                  
  0.1285       1 (B2u) A                 ->    15 (Ag) A                   
  0.1212       1 (B3u) B                 ->    4 (B1g) B                   
 -0.1113       1 (Ag) B                  ->    7 (B2u) B                   
 -0.1031       1 (Ag) A                  ->    11 (B2u) A                  
  0.1007       1 (B3u) B                 ->    6 (B1g) B                   

              Summary of significant orbitals:

               Number  Type             Irrep      Energy
               2       Occ  Alpha       1 (Ag)    -11.4950
               1       Occ  Alpha       1 (B2u)    -11.4950
               1       Occ  Beta        1 (Ag)    -11.4869
               4       Occ  Beta        1 (B1g)    -11.4858
               2       Occ  Beta        1 (B2u)    -11.4869
               3       Occ  Beta        1 (B3u)    -11.4858
               23      Vir  Alpha       7 (Ag)     -0.0895
               36      Vir  Alpha      10 (Ag)     -0.0246
               60      Vir  Alpha      15 (Ag)      0.0970
               25      Vir  Alpha       5 (B2u)     -0.0734
               61      Vir  Alpha      11 (B2u)      0.1049
               22      Vir  Beta        7 (Ag)     -0.0889
               36      Vir  Beta       10 (Ag)     -0.0242
               59      Vir  Beta       15 (Ag)      0.0982
               28      Vir  Beta        4 (B1g)     -0.0518
               45      Vir  Beta        6 (B1g)      0.0036
               23      Vir  Beta        5 (B2u)     -0.0728
               35      Vir  Beta        7 (B2u)     -0.0250
               40      Vir  Beta        8 (B2u)     -0.0091
               61      Vir  Beta       11 (B2u)      0.1077
               25      Vir  Beta        6 (B3u)     -0.0697


 EOMEE transition 2/B2u
 Total energy = -220.60592259 a.u.  Excitation energy = 290.6486 eV.
 R0^2 = 0.0000  R1^2 = 0.8095  R2_CCVV^2 = 0.0017  R2_COVV^2 = 0.0944  Res^2 = 3.38e-06
 Conv-d = yes

 Amplitude    Transitions between orbitals
  0.4683       1 (B2u) A                 ->    7 (Ag) A                    
 -0.3389       1 (B2u) B                 ->    7 (Ag) B                    
 -0.2624       1 (B2u) A                 ->    10 (Ag) A                   
 -0.2536       1 (Ag) A                  ->    5 (B2u) A                   
  0.1878       1 (B2u) A                 ->    15 (Ag) A                   
  0.1753       1 (B2u) B                 ->    10 (Ag) B                   
 -0.1636       1 (Ag) B                  ->    5 (B2u) B                   
 -0.1581       1 (B1g) A                 ->    6 (B3u) A                   
 -0.1375       1 (Ag) A                  ->    8 (B2u) A                   
 -0.1346       1 (Ag) A                  ->    11 (B2u) A                  
 -0.1174       1 (B2u) B                 ->    15 (Ag) B                   
 -0.1089       1 (B3u) A                 ->    4 (B1g) A                   
  0.1051       1 (Ag) A                  ->    7 (B2u) A                   
 -0.1032       1 (B1g) B                 ->    6 (B3u) B                   

              Summary of significant orbitals:

               Number  Type             Irrep      Energy
               2       Occ  Alpha       1 (Ag)    -11.4950
               4       Occ  Alpha       1 (B1g)    -11.4938
               1       Occ  Alpha       1 (B2u)    -11.4950
               3       Occ  Alpha       1 (B3u)    -11.4938
               1       Occ  Beta        1 (Ag)    -11.4869
               4       Occ  Beta        1 (B1g)    -11.4858
               2       Occ  Beta        1 (B2u)    -11.4869
               23      Vir  Alpha       7 (Ag)     -0.0895
               36      Vir  Alpha      10 (Ag)     -0.0246
               60      Vir  Alpha      15 (Ag)      0.0970
               29      Vir  Alpha       4 (B1g)     -0.0521
               25      Vir  Alpha       5 (B2u)     -0.0734
               35      Vir  Alpha       7 (B2u)     -0.0256
               40      Vir  Alpha       8 (B2u)     -0.0095
               61      Vir  Alpha      11 (B2u)      0.1049
               26      Vir  Alpha       6 (B3u)     -0.0696
               22      Vir  Beta        7 (Ag)     -0.0889
               36      Vir  Beta       10 (Ag)     -0.0242
               59      Vir  Beta       15 (Ag)      0.0982
               23      Vir  Beta        5 (B2u)     -0.0728
               25      Vir  Beta        6 (B3u)     -0.0697


 EOMEE transition 3/B2u
 Total energy = -220.59209444 a.u.  Excitation energy = 291.0249 eV.
 R0^2 = 0.0000  R1^2 = 0.8037  R2_CCVV^2 = 0.0017  R2_COVV^2 = 0.0973  Res^2 = 5.70e-06
 Conv-d = yes

 Amplitude    Transitions between orbitals
  0.6826       2 (Ag) A                  ->    5 (B2u) A                   
 -0.3169       2 (B3u) A                 ->    4 (B1g) A                   
 -0.2375       2 (Ag) A                  ->    7 (B2u) A                   
  0.2258       2 (Ag) A                  ->    8 (B2u) A                   
 -0.1697       2 (B3u) A                 ->    5 (B1g) A                   
 -0.1617       2 (B3u) A                 ->    6 (B1g) A                   
  0.1425       2 (Ag) A                  ->    11 (B2u) A                  
  0.1277       2 (B3u) A                 ->    7 (B1g) A                   
  0.1025       2 (Ag) A                  ->    10 (B2u) A                  

              Summary of significant orbitals:

               Number  Type             Irrep      Energy
               6       Occ  Alpha       2 (Ag)    -11.4422
               5       Occ  Alpha       2 (B3u)    -11.4422
               29      Vir  Alpha       4 (B1g)     -0.0521
               41      Vir  Alpha       5 (B1g)     -0.0080
               45      Vir  Alpha       6 (B1g)      0.0031
               54      Vir  Alpha       7 (B1g)      0.0760
               25      Vir  Alpha       5 (B2u)     -0.0734
               35      Vir  Alpha       7 (B2u)     -0.0256
               40      Vir  Alpha       8 (B2u)     -0.0095
               56      Vir  Alpha      10 (B2u)      0.0794
               61      Vir  Alpha      11 (B2u)      0.1049


 EOMEE transition 4/B2u
 Total energy = -220.58473142 a.u.  Excitation energy = 291.2252 eV.
 R0^2 = 0.0000  R1^2 = 0.8000  R2_CCVV^2 = 0.0017  R2_COVV^2 = 0.0992  Res^2 = 4.39e-06
 Conv-d = yes

 Amplitude    Transitions between orbitals
  0.6865       2 (Ag) B                  ->    5 (B2u) B                   
 -0.3072       2 (B3u) B                 ->    4 (B1g) B                   
 -0.2369       2 (Ag) B                  ->    7 (B2u) B                   
 -0.2320       2 (Ag) B                  ->    8 (B2u) B                   
 -0.1614       2 (B3u) B                 ->    6 (B1g) B                   
 -0.1588       2 (B3u) B                 ->    5 (B1g) B                   
 -0.1325       2 (Ag) B                  ->    11 (B2u) B                  
 -0.1192       2 (B3u) B                 ->    7 (B1g) B                   
 -0.1169       2 (Ag) B                  ->    10 (B2u) B                  

              Summary of significant orbitals:

               Number  Type             Irrep      Energy
               6       Occ  Beta        2 (Ag)    -11.4490
               5       Occ  Beta        2 (B3u)    -11.4491
               28      Vir  Beta        4 (B1g)     -0.0518
               42      Vir  Beta        5 (B1g)     -0.0077
               45      Vir  Beta        6 (B1g)      0.0036
               54      Vir  Beta        7 (B1g)      0.0774
               23      Vir  Beta        5 (B2u)     -0.0728
               35      Vir  Beta        7 (B2u)     -0.0250
               40      Vir  Beta        8 (B2u)     -0.0091
               55      Vir  Beta       10 (B2u)      0.0876
               61      Vir  Beta       11 (B2u)      0.1077


 EOMEE transition 5/B2u
 Total energy = -220.57286574 a.u.  Excitation energy = 291.5481 eV.
 R0^2 = 0.0000  R1^2 = 0.7980  R2_CCVV^2 = 0.0016  R2_COVV^2 = 0.1002  Res^2 = 4.68e-06
 Conv-d = yes

 Amplitude    Transitions between orbitals
 -0.4459       1 (B2u) B                 ->    7 (Ag) B                    
  0.4057       1 (B2u) B                 ->    8 (Ag) B                    
 -0.4024       1 (B2u) B                 ->    13 (Ag) B                   
 -0.2776       1 (B2u) B                 ->    9 (Ag) B                    
  0.2036       1 (Ag) B                  ->    5 (B2u) B                   
 -0.1410       1 (Ag) B                  ->    11 (B2u) B                  
 -0.1391       1 (Ag) B                  ->    8 (B2u) B                   
 -0.1283       1 (B2u) A                 ->    7 (Ag) A                    
  0.1071       1 (B3u) B                 ->    4 (B1g) B                   

              Summary of significant orbitals:

               Number  Type             Irrep      Energy
               1       Occ  Alpha       1 (B2u)    -11.4950
               1       Occ  Beta        1 (Ag)    -11.4869
               2       Occ  Beta        1 (B2u)    -11.4869
               3       Occ  Beta        1 (B3u)    -11.4858
               23      Vir  Alpha       7 (Ag)     -0.0895
               22      Vir  Beta        7 (Ag)     -0.0889
               27      Vir  Beta        8 (Ag)     -0.0524
               29      Vir  Beta        9 (Ag)     -0.0509
               49      Vir  Beta       13 (Ag)      0.0305
               28      Vir  Beta        4 (B1g)     -0.0518
               23      Vir  Beta        5 (B2u)     -0.0728
               40      Vir  Beta        8 (B2u)     -0.0091
               61      Vir  Beta       11 (B2u)      0.1077


 EOMEE transition 6/B2u
 Total energy = -220.56522732 a.u.  Excitation energy = 291.7560 eV.
 R0^2 = 0.0000  R1^2 = 0.8056  R2_CCVV^2 = 0.0017  R2_COVV^2 = 0.0964  Res^2 = 4.40e-06
 Conv-d = yes

 Amplitude    Transitions between orbitals
  0.5321       2 (B3u) A                 ->    4 (B1g) A                   
  0.3886       2 (Ag) A                  ->    5 (B2u) A                   
  0.2836       2 (B3u) A                 ->    5 (B1g) A                   
 -0.2677       2 (B3u) A                 ->    7 (B1g) A                   
  0.2401       2 (B3u) A                 ->    6 (B1g) A                   
  0.1822       2 (B3u) A                 ->    11 (B1g) A                  
  0.1725       2 (Ag) A                  ->    9 (B2u) A                   
  0.1523       2 (Ag) A                  ->    6 (B2u) A                   
  0.1294       2 (Ag) A                  ->    13 (B2u) A                  
 -0.1270       2 (Ag) A                  ->    7 (B2u) A                   

              Summary of significant orbitals:

               Number  Type             Irrep      Energy
               6       Occ  Alpha       2 (Ag)    -11.4422
               5       Occ  Alpha       2 (B3u)    -11.4422
               29      Vir  Alpha       4 (B1g)     -0.0521
               41      Vir  Alpha       5 (B1g)     -0.0080
               45      Vir  Alpha       6 (B1g)      0.0031
               54      Vir  Alpha       7 (B1g)      0.0760
               76      Vir  Alpha      11 (B1g)      0.2607
               25      Vir  Alpha       5 (B2u)     -0.0734
               33      Vir  Alpha       6 (B2u)     -0.0280
               35      Vir  Alpha       7 (B2u)     -0.0256
               52      Vir  Alpha       9 (B2u)      0.0490
               73      Vir  Alpha      13 (B2u)      0.2454


      CVS-EOM-CCSD/MP2 left amplitudes will be solved using Davidson.
        Amplitudes will be solved using MOM  algorithm.
     Hard-coded thresholds: 
     LinDepThresh=1.00e-15  NormThresh=1.00e-06  ReorthogonThresh=1.00e-02

      Roots     MaxVec    MaxIter   Precond   Conv      Shift    
      6         120       60        1         1.00e-05  1.03e+01  
 ------------------------------------------------------------------------------
      Iter ConvRoots NVecs ResNorm Current eigenvalues (eV)
 ------------------------------------------------------------------------------
      0    0      6     2.60e-02   290.1088   290.6486   291.0249   291.2252   291.5481   291.7560   
      1    0      12    7.28e+00   290.1088   290.6485   291.0248   291.2252   291.5481   291.7559   
      2    0      18    1.49e-01   290.1088   290.6485   291.0248   291.2252   291.5481   291.7559   
      3    0      24    5.45e-04   290.1088   290.6484   291.0247   291.2251   291.5481   291.7559   
      4    0      30    1.95e-03   290.1088   290.6484   291.0247   291.2251   291.5481   291.7559   
      5    1      36    9.90e-05   290.1088   290.6484   291.0247   291.2251*  291.5481   291.7559   
      6    1      41    7.64e-05   290.1088   290.6484   291.0247   291.2251*  291.5481   291.7559   
      7    0      46    2.20e-02   290.1088   290.6484   291.0247   291.2251   291.5481   291.7558   
      8    1      52    4.43e-05   290.1088   290.6484*  291.0247   291.2251   291.5481   291.7558   
      9    4      57    1.17e-05   290.1088*  290.6484*  291.0247*  291.2251*  291.5481   291.7558   
      10   5      59    2.62e-05   290.1088*  290.6484*  291.0247*  291.2251*  291.5481   291.7558*  
      11   4      60    5.75e-05   290.1088   290.6484*  291.0247*  291.2251*  291.5481   291.7558*  
      12   5      62    9.02e-06   290.1088*  290.6484*  291.0247*  291.2251*  291.5481   291.7558*  
      13   5      63    7.14e-06   290.1088*  290.6484*  291.0247*  291.2251*  291.5481   291.7558*  
      14   6      64    5.76e-06   290.1088*  290.6484*  291.0247*  291.2251*  291.5480*  291.7558*  

     Davidson procedure converged

        Solving for CVS-EOMEE-CCSD B3u transitions.

        CVS-EOMEE-CCSD/MP2 right amplitudes will be solved using Davidson.
        Amplitudes will be solved using shifted  algorithm.
     Hard-coded thresholds: 
     LinDepThresh=1.00e-15  NormThresh=1.00e-06  ReorthogonThresh=1.00e-02

      Roots     MaxVec    MaxIter   Precond   Conv      Shift    
      6         120       60        1         1.00e-05  1.03e+01  
 ------------------------------------------------------------------------------
      Iter ConvRoots NVecs ResNorm Current eigenvalues (eV)
 ------------------------------------------------------------------------------
      0    0      6     1.95e+00   304.9068   305.1561   306.1031   306.6831   306.7724   307.2958   
      1    0      12    5.81e+00   302.0953   302.3565   303.2740   303.8405   303.9160   304.4469   
      2    0      18    1.12e-01   291.0135   291.2937   292.1698   292.6277   292.7140   293.2358   
      3    0      24    1.54e-02   290.2315   290.4865   291.4016   291.9015   291.9916   292.5511   
      4    0      30    1.54e-02   290.0477   290.3080   291.2373   291.7888   291.8866   292.4632   
      5    0      36    3.05e-02   289.5414   289.9365   290.7687   291.5081   291.5858   292.2015   
      6    0      42    5.56e-03   289.3101   289.7450   290.5711   291.2432   291.3408   291.9335   
      7    0      48    3.00e-03   289.2720   289.7057   290.5368   291.1418   291.2837   291.8539   
      8    0      54    9.42e-04   289.2562   289.6922   290.5261   291.0758   291.2609   291.8264   
      9    0      60    2.49e-03   289.2422   289.6817   290.5208   290.9798   291.2478   291.8054   
      10   0      66    1.01e-03   289.2363   289.6754   290.5170   290.8647   291.2343   291.7854   
      11   0      72    6.80e-04   289.2350   289.6736   290.5159   290.8025   291.2270   291.7719   
      12   0      78    7.66e-04   289.2346   289.6731   290.5150   290.7772   291.2226   291.7475   
      13   2      84    9.86e-04   289.2344*  289.6730*  290.5148   290.7632   291.2190   291.6800   
      14   2      88    2.03e-03   289.2344*  289.6729*  290.5143   290.7513   291.2106   291.5480   
      15   2      92    6.37e-03   289.2342*  289.6729*  290.5140   290.7448   290.9518   291.2103   
      16   2      96    3.34e-03   289.2343*  289.6729*  290.5053   290.5238   290.7538   291.2062   
      17   2      100   1.44e-03   289.2343*  289.6729*  290.3408   290.5149   290.7501   291.2043   
      18   3      104   7.71e-04   289.2343*  289.6729*  290.2415   290.5147*  290.7485   291.2032   
      19   3      107   3.91e-04   289.2343*  289.6729*  290.1955   290.5147*  290.7477   291.2022   
      20   4      110   2.01e-04   289.2343*  289.6729*  290.1695   290.5146*  290.7476*  291.2014   
      21   4      112   2.72e-04   289.2343*  289.6729*  290.1550   290.5146*  290.7474*  291.2004   
      22   3      114   4.12e-03   289.2343*  289.6729*  290.1293   290.5146*  290.7475   291.1488   
      23   3      117   2.47e-03   289.2343*  289.6728*  290.1096   290.5146*  290.7459   290.8019   
      24   3      120   7.01e-04   289.2343*  289.6728*  290.0975   290.5146*  290.6894   290.7494   
      25   3      9     2.30e-04   289.2343*  289.6728*  290.0954   290.5146*  290.6650   290.7485   
      26   3      12    2.35e-04   289.2343*  289.6728*  290.0917   290.5146*  290.6430   290.7481   
      27   4      15    8.42e-05   289.2343*  289.6728*  290.0908   290.5146*  290.6298   290.7482*  
      28   4      17    4.50e-05   289.2343*  289.6728*  290.0899   290.5146*  290.6260   290.7481*  
      29   4      19    2.71e-05   289.2343*  289.6728*  290.0898   290.5146*  290.6218   290.7481*  
      30   5      21    1.45e-05   289.2343*  289.6728*  290.0894*  290.5146*  290.6213   290.7481*  
      31   5      22    1.23e-05   289.2343*  289.6728*  290.0893*  290.5146*  290.6196   290.7481*  
      32   5      23    2.50e-05   289.2343*  289.6728*  290.0894*  290.5146*  290.6185   290.7481*  
      33   3      24    1.53e+00   282.8983   289.2343*  289.6728*  290.0896   290.5146*  290.6190   
      34   5      27    9.80e-06   289.2343*  289.6728*  290.0893*  290.5146*  290.6193   290.7481*  
      35   5      28    2.72e-06   289.2343*  289.6728*  290.0893*  290.5146*  290.6182   290.7481*  
      36   5      29    8.52e-06   289.2343*  289.6728*  290.0893*  290.5146*  290.6185   290.7481*  
      37   5      30    5.53e-06   289.2343*  289.6728*  290.0893*  290.5146*  290.6185   290.7481*  
      38   6      31    9.99e-07   289.2343*  289.6728*  290.0893*  290.5146*  290.6185*  290.7481*  

     Davidson procedure converged

 EOMEE transition 1/B3u
 Total energy = -220.65789766 a.u.  Excitation energy = 289.2343 eV.
 R0^2 = 0.0000  R1^2 = 0.8297  R2_CCVV^2 = 0.0016  R2_COVV^2 = 0.0843  Res^2 = 7.15e-07
 Conv-d = yes

 Amplitude    Transitions between orbitals
 -0.4382       2 (B3u) A                 ->    7 (Ag) A                    
  0.2803       2 (Ag) A                  ->    6 (B3u) A                   
  0.2770       2 (B3u) B                 ->    7 (Ag) B                    
  0.2451       2 (B3u) A                 ->    10 (Ag) A                   
  0.1918       2 (Ag) B                  ->    6 (B3u) B                   
 -0.1811       2 (B3u) A                 ->    15 (Ag) A                   
  0.1691       2 (Ag) A                  ->    9 (B3u) A                   
 -0.1657       2 (B3u) B                 ->    10 (Ag) B                   
  0.1542       2 (Ag) A                  ->    12 (B3u) A                  
  0.1293       2 (B3u) B                 ->    15 (Ag) B                   
 -0.1256       2 (Ag) A                  ->    8 (B3u) A                   
  0.1252       2 (B3u) A                 ->    12 (Ag) A                   
  0.1245       2 (B3u) A                 ->    9 (Ag) A                    
  0.1239       2 (B3u) A                 ->    16 (Ag) A                   
  0.1200       2 (Ag) B                  ->    9 (B3u) B                   
  0.1158       2 (Ag) B                  ->    12 (B3u) B                  

              Summary of significant orbitals:

               Number  Type             Irrep      Energy
               6       Occ  Alpha       2 (Ag)    -11.4422
               5       Occ  Alpha       2 (B3u)    -11.4422
               6       Occ  Beta        2 (Ag)    -11.4490
               5       Occ  Beta        2 (B3u)    -11.4491
               23      Vir  Alpha       7 (Ag)     -0.0895
               30      Vir  Alpha       9 (Ag)     -0.0511
               36      Vir  Alpha      10 (Ag)     -0.0246
               46      Vir  Alpha      12 (Ag)      0.0044
               60      Vir  Alpha      15 (Ag)      0.0970
               64      Vir  Alpha      16 (Ag)      0.1260
               26      Vir  Alpha       6 (B3u)     -0.0696
               37      Vir  Alpha       8 (B3u)     -0.0235
               43      Vir  Alpha       9 (B3u)     -0.0065
               62      Vir  Alpha      12 (B3u)      0.1122
               22      Vir  Beta        7 (Ag)     -0.0889
               36      Vir  Beta       10 (Ag)     -0.0242
               59      Vir  Beta       15 (Ag)      0.0982
               25      Vir  Beta        6 (B3u)     -0.0697
               43      Vir  Beta        9 (B3u)     -0.0066
               62      Vir  Beta       12 (B3u)      0.1120


 EOMEE transition 2/B3u
 Total energy = -220.64178127 a.u.  Excitation energy = 289.6728 eV.
 R0^2 = 0.0000  R1^2 = 0.8172  R2_CCVV^2 = 0.0017  R2_COVV^2 = 0.0906  Res^2 = 8.75e-07
 Conv-d = yes

 Amplitude    Transitions between orbitals
 -0.4830       2 (B3u) B                 ->    7 (Ag) B                    
 -0.3719       2 (B3u) A                 ->    7 (Ag) A                    
 -0.2809       2 (Ag) B                  ->    6 (B3u) B                   
  0.2558       2 (B3u) B                 ->    10 (Ag) B                   
  0.1866       2 (Ag) A                  ->    6 (B3u) A                   
  0.1795       2 (B3u) A                 ->    10 (Ag) A                   
 -0.1779       2 (B3u) B                 ->    15 (Ag) B                   
 -0.1601       2 (Ag) B                  ->    9 (B3u) B                   
 -0.1407       2 (Ag) B                  ->    12 (B3u) B                  
  0.1215       2 (Ag) B                  ->    8 (B3u) B                   
 -0.1163       2 (B3u) A                 ->    15 (Ag) A                   
  0.1003       2 (Ag) A                  ->    9 (B3u) A                   

              Summary of significant orbitals:

               Number  Type             Irrep      Energy
               6       Occ  Alpha       2 (Ag)    -11.4422
               5       Occ  Alpha       2 (B3u)    -11.4422
               6       Occ  Beta        2 (Ag)    -11.4490
               5       Occ  Beta        2 (B3u)    -11.4491
               23      Vir  Alpha       7 (Ag)     -0.0895
               36      Vir  Alpha      10 (Ag)     -0.0246
               60      Vir  Alpha      15 (Ag)      0.0970
               26      Vir  Alpha       6 (B3u)     -0.0696
               43      Vir  Alpha       9 (B3u)     -0.0065
               22      Vir  Beta        7 (Ag)     -0.0889
               36      Vir  Beta       10 (Ag)     -0.0242
               59      Vir  Beta       15 (Ag)      0.0982
               25      Vir  Beta        6 (B3u)     -0.0697
               37      Vir  Beta        8 (B3u)     -0.0235
               43      Vir  Beta        9 (B3u)     -0.0066
               62      Vir  Beta       12 (B3u)      0.1120


 EOMEE transition 3/B3u
 Total energy = -220.62647548 a.u.  Excitation energy = 290.0893 eV.
 R0^2 = 0.0000  R1^2 = 0.8244  R2_CCVV^2 = 0.0016  R2_COVV^2 = 0.0870  Res^2 = 5.86e-07
 Conv-d = yes

 Amplitude    Transitions between orbitals
  0.4262       1 (B3u) B                 ->    7 (Ag) B                    
 -0.2592       1 (B3u) B                 ->    10 (Ag) B                   
 -0.2575       1 (B1g) B                 ->    5 (B2u) B                   
 -0.2540       1 (B3u) A                 ->    7 (Ag) A                    
  0.1986       1 (B3u) B                 ->    15 (Ag) B                   
  0.1615       1 (B3u) A                 ->    10 (Ag) A                   
 -0.1614       1 (B1g) A                 ->    5 (B2u) A                   
  0.1508       1 (B1g) B                 ->    8 (B2u) B                   
 -0.1489       1 (Ag) B                  ->    6 (B3u) B                   
  0.1478       1 (B1g) B                 ->    11 (B2u) B                  
 -0.1291       1 (B3u) A                 ->    15 (Ag) A                   
  0.1181       1 (B2u) B                 ->    4 (B1g) B                   
  0.1119       1 (B1g) B                 ->    7 (B2u) B                   
 -0.1033       1 (B1g) A                 ->    11 (B2u) A                  

              Summary of significant orbitals:

               Number  Type             Irrep      Energy
               4       Occ  Alpha       1 (B1g)    -11.4938
               3       Occ  Alpha       1 (B3u)    -11.4938
               1       Occ  Beta        1 (Ag)    -11.4869
               4       Occ  Beta        1 (B1g)    -11.4858
               2       Occ  Beta        1 (B2u)    -11.4869
               3       Occ  Beta        1 (B3u)    -11.4858
               23      Vir  Alpha       7 (Ag)     -0.0895
               36      Vir  Alpha      10 (Ag)     -0.0246
               60      Vir  Alpha      15 (Ag)      0.0970
               25      Vir  Alpha       5 (B2u)     -0.0734
               61      Vir  Alpha      11 (B2u)      0.1049
               22      Vir  Beta        7 (Ag)     -0.0889
               36      Vir  Beta       10 (Ag)     -0.0242
               59      Vir  Beta       15 (Ag)      0.0982
               28      Vir  Beta        4 (B1g)     -0.0518
               23      Vir  Beta        5 (B2u)     -0.0728
               35      Vir  Beta        7 (B2u)     -0.0250
               40      Vir  Beta        8 (B2u)     -0.0091
               61      Vir  Beta       11 (B2u)      0.1077
               25      Vir  Beta        6 (B3u)     -0.0697


 EOMEE transition 4/B3u
 Total energy = -220.61084783 a.u.  Excitation energy = 290.5146 eV.
 R0^2 = 0.0000  R1^2 = 0.8113  R2_CCVV^2 = 0.0017  R2_COVV^2 = 0.0935  Res^2 = 4.28e-08
 Conv-d = yes

 Amplitude    Transitions between orbitals
  0.4204       2 (B3u) A                 ->    13 (Ag) A                   
  0.4003       2 (B3u) A                 ->    7 (Ag) A                    
 -0.3808       2 (B3u) A                 ->    8 (Ag) A                    
  0.3698       2 (B3u) A                 ->    9 (Ag) A                    
  0.2133       2 (Ag) A                  ->    6 (B3u) A                   
  0.1627       2 (Ag) A                  ->    9 (B3u) A                   
  0.1616       2 (Ag) A                  ->    12 (B3u) A                  
 -0.1293       2 (B3u) B                 ->    7 (Ag) B                    

              Summary of significant orbitals:

               Number  Type             Irrep      Energy
               6       Occ  Alpha       2 (Ag)    -11.4422
               5       Occ  Alpha       2 (B3u)    -11.4422
               5       Occ  Beta        2 (B3u)    -11.4491
               23      Vir  Alpha       7 (Ag)     -0.0895
               28      Vir  Alpha       8 (Ag)     -0.0531
               30      Vir  Alpha       9 (Ag)     -0.0511
               48      Vir  Alpha      13 (Ag)      0.0270
               26      Vir  Alpha       6 (B3u)     -0.0696
               43      Vir  Alpha       9 (B3u)     -0.0065
               62      Vir  Alpha      12 (B3u)      0.1122
               22      Vir  Beta        7 (Ag)     -0.0889


 EOMEE transition 5/B3u
 Total energy = -220.60702921 a.u.  Excitation energy = 290.6185 eV.
 R0^2 = 0.0000  R1^2 = 0.8097  R2_CCVV^2 = 0.0017  R2_COVV^2 = 0.0943  Res^2 = 3.65e-06
 Conv-d = yes

 Amplitude    Transitions between orbitals
  0.4712       1 (B3u) A                 ->    7 (Ag) A                    
  0.3387       1 (B3u) B                 ->    7 (Ag) B                    
 -0.2642       1 (B3u) A                 ->    10 (Ag) A                   
  0.2546       1 (B1g) A                 ->    5 (B2u) A                   
  0.1896       1 (B3u) A                 ->    15 (Ag) A                   
 -0.1758       1 (B3u) B                 ->    10 (Ag) B                   
 -0.1642       1 (B1g) B                 ->    5 (B2u) B                   
  0.1524       1 (Ag) A                  ->    6 (B3u) A                   
  0.1394       1 (B1g) A                 ->    8 (B2u) A                   
  0.1363       1 (B1g) A                 ->    11 (B2u) A                  
  0.1180       1 (B3u) B                 ->    15 (Ag) B                   
 -0.1060       1 (B1g) A                 ->    7 (B2u) A                   
 -0.1036       1 (B2u) A                 ->    4 (B1g) A                   
 -0.1009       1 (Ag) B                  ->    6 (B3u) B                   

              Summary of significant orbitals:

               Number  Type             Irrep      Energy
               2       Occ  Alpha       1 (Ag)    -11.4950
               4       Occ  Alpha       1 (B1g)    -11.4938
               1       Occ  Alpha       1 (B2u)    -11.4950
               3       Occ  Alpha       1 (B3u)    -11.4938
               1       Occ  Beta        1 (Ag)    -11.4869
               4       Occ  Beta        1 (B1g)    -11.4858
               3       Occ  Beta        1 (B3u)    -11.4858
               23      Vir  Alpha       7 (Ag)     -0.0895
               36      Vir  Alpha      10 (Ag)     -0.0246
               60      Vir  Alpha      15 (Ag)      0.0970
               29      Vir  Alpha       4 (B1g)     -0.0521
               25      Vir  Alpha       5 (B2u)     -0.0734
               35      Vir  Alpha       7 (B2u)     -0.0256
               40      Vir  Alpha       8 (B2u)     -0.0095
               61      Vir  Alpha      11 (B2u)      0.1049
               26      Vir  Alpha       6 (B3u)     -0.0696
               22      Vir  Beta        7 (Ag)     -0.0889
               36      Vir  Beta       10 (Ag)     -0.0242
               59      Vir  Beta       15 (Ag)      0.0982
               23      Vir  Beta        5 (B2u)     -0.0728
               25      Vir  Beta        6 (B3u)     -0.0697


 EOMEE transition 6/B3u
 Total energy = -220.60226592 a.u.  Excitation energy = 290.7481 eV.
 R0^2 = 0.0000  R1^2 = 0.8071  R2_CCVV^2 = 0.0017  R2_COVV^2 = 0.0956  Res^2 = 1.24e-07
 Conv-d = yes

 Amplitude    Transitions between orbitals
 -0.4384       2 (B3u) B                 ->    9 (Ag) B                    
 -0.4107       2 (B3u) B                 ->    13 (Ag) B                   
 -0.4105       2 (B3u) B                 ->    7 (Ag) B                    
  0.2813       2 (B3u) B                 ->    8 (Ag) B                    
  0.2224       2 (Ag) B                  ->    6 (B3u) B                   
  0.1649       2 (Ag) B                  ->    9 (B3u) B                   
  0.1605       2 (Ag) B                  ->    12 (B3u) B                  
 -0.1006       2 (B3u) B                 ->    12 (Ag) B                   

              Summary of significant orbitals:

               Number  Type             Irrep      Energy
               6       Occ  Beta        2 (Ag)    -11.4490
               5       Occ  Beta        2 (B3u)    -11.4491
               22      Vir  Beta        7 (Ag)     -0.0889
               27      Vir  Beta        8 (Ag)     -0.0524
               29      Vir  Beta        9 (Ag)     -0.0509
               46      Vir  Beta       12 (Ag)      0.0043
               49      Vir  Beta       13 (Ag)      0.0305
               25      Vir  Beta        6 (B3u)     -0.0697
               43      Vir  Beta        9 (B3u)     -0.0066
               62      Vir  Beta       12 (B3u)      0.1120


      CVS-EOM-CCSD/MP2 left amplitudes will be solved using Davidson.
        Amplitudes will be solved using MOM  algorithm.
     Hard-coded thresholds: 
     LinDepThresh=1.00e-15  NormThresh=1.00e-06  ReorthogonThresh=1.00e-02

      Roots     MaxVec    MaxIter   Precond   Conv      Shift    
      6         120       60        1         1.00e-05  1.03e+01  
 ------------------------------------------------------------------------------
      Iter ConvRoots NVecs ResNorm Current eigenvalues (eV)
 ------------------------------------------------------------------------------
      0    0      6     2.44e-02   289.2343   289.6728   290.0893   290.5146   290.6185   290.7481   
      1    0      12    7.17e-01   289.2342   289.6728   290.0893   290.5146   290.6184   290.7481   
[...]

     Davidson procedure converged

 CVS-EOMEE-CCSD calculation:   CPU 44538.27 s  wall 7507.64 s


 Start computing the transition properties

 ------------------------------------------------------------------------------
 State A: ccsd: 0/Ag
 State B: cvs_eomee_ccsd/uhfref: 1/B1u
 Transition dipole moment (a.u.):
   A->B: 0.108052 (X 0.000000, Y 0.000000, Z 0.108052)
   B->A: 0.110016 (X 0.000000, Y 0.000000, Z 0.110016)
 Oscillator strength (a.u.): 0.081945
 Norm of one-particle transition density matrix:
   A->B: 0.906722;   B->A: 0.906804
   ||gamma^AB||*||gamma^BA||: 0.822220

 ------------------------------------------------------------------------------
 State A: ccsd: 0/Ag
 State B: cvs_eomee_ccsd/uhfref: 2/B1u
 Transition dipole moment (a.u.):
   A->B: 0.053937 (X 0.000000, Y 0.000000, Z -0.053937)
   B->A: 0.058885 (X 0.000000, Y 0.000000, Z -0.058885)
 Oscillator strength (a.u.): 0.022177
 Norm of one-particle transition density matrix:
   A->B: 0.901494;   B->A: 0.914706
   ||gamma^AB||*||gamma^BA||: 0.824602

 ------------------------------------------------------------------------------
 State A: ccsd: 0/Ag
 State B: cvs_eomee_ccsd/uhfref: 3/B1u
 Transition dipole moment (a.u.):
   A->B: 0.107564 (X 0.000000, Y 0.000000, Z -0.107564)
   B->A: 0.107363 (X 0.000000, Y 0.000000, Z -0.107363)
 Oscillator strength (a.u.): 0.080891
 Norm of one-particle transition density matrix:
   A->B: 0.896015;   B->A: 0.896758
   ||gamma^AB||*||gamma^BA||: 0.803509

 ------------------------------------------------------------------------------
 State A: ccsd: 0/Ag
 State B: cvs_eomee_ccsd/uhfref: 4/B1u
 Transition dipole moment (a.u.):
   A->B: 0.111035 (X 0.000000, Y 0.000000, Z -0.111035)
   B->A: 0.116399 (X 0.000000, Y 0.000000, Z -0.116399)
 Oscillator strength (a.u.): 0.090671
 Norm of one-particle transition density matrix:
   A->B: 0.895258;   B->A: 0.899344
   ||gamma^AB||*||gamma^BA||: 0.805145

 ------------------------------------------------------------------------------
 State A: ccsd: 0/Ag
 State B: cvs_eomee_ccsd/uhfref: 5/B1u
 Transition dipole moment (a.u.):
   A->B: 0.111463 (X 0.000000, Y 0.000000, Z 0.111463)
   B->A: 0.111724 (X 0.000000, Y 0.000000, Z 0.111724)
 Oscillator strength (a.u.): 0.087737
 Norm of one-particle transition density matrix:
   A->B: 0.885577;   B->A: 0.872093
   ||gamma^AB||*||gamma^BA||: 0.772305

 ------------------------------------------------------------------------------
 State A: ccsd: 0/Ag
 State B: cvs_eomee_ccsd/uhfref: 6/B1u
 Transition dipole moment (a.u.):
   A->B: 0.026362 (X 0.000000, Y 0.000000, Z 0.026362)
   B->A: 0.023147 (X 0.000000, Y 0.000000, Z 0.023147)
 Oscillator strength (a.u.): 0.004312
 Norm of one-particle transition density matrix:
   A->B: 0.855909;   B->A: 0.839837
   ||gamma^AB||*||gamma^BA||: 0.718824

 ------------------------------------------------------------------------------
 State A: ccsd: 0/Ag
 State B: cvs_eomee_ccsd/uhfref: 1/B2u
 Transition dipole moment (a.u.):
   A->B: 0.015949 (X 0.000000, Y -0.015949, Z 0.000000)
   B->A: 0.015517 (X 0.000000, Y -0.015517, Z 0.000000)
 Oscillator strength (a.u.): 0.001759
 Norm of one-particle transition density matrix:
   A->B: 0.907997;   B->A: 0.880978
   ||gamma^AB||*||gamma^BA||: 0.799925

 ------------------------------------------------------------------------------
 State A: ccsd: 0/Ag
 State B: cvs_eomee_ccsd/uhfref: 2/B2u
 Transition dipole moment (a.u.):
   A->B: 0.068721 (X 0.000000, Y 0.068721, Z 0.000000)
   B->A: 0.067254 (X 0.000000, Y 0.067254, Z 0.000000)
 Oscillator strength (a.u.): 0.032911
 Norm of one-particle transition density matrix:
   A->B: 0.902012;   B->A: 0.870207
   ||gamma^AB||*||gamma^BA||: 0.784937

 ------------------------------------------------------------------------------
 State A: ccsd: 0/Ag
 State B: cvs_eomee_ccsd/uhfref: 3/B2u
 Transition dipole moment (a.u.):
   A->B: 0.000407 (X 0.000000, Y -0.000407, Z 0.000000)
   B->A: 0.000139 (X 0.000000, Y -0.000139, Z 0.000000)
 Oscillator strength (a.u.): 0.000000
 Norm of one-particle transition density matrix:
   A->B: 0.894841;   B->A: 0.859995
   ||gamma^AB||*||gamma^BA||: 0.769559

 ------------------------------------------------------------------------------
 State A: ccsd: 0/Ag
 State B: cvs_eomee_ccsd/uhfref: 4/B2u
 Transition dipole moment (a.u.):
   A->B: 0.001002 (X 0.000000, Y -0.001002, Z 0.000000)
   B->A: 0.000909 (X 0.000000, Y -0.000909, Z 0.000000)
 Oscillator strength (a.u.): 0.000006
 Norm of one-particle transition density matrix:
   A->B: 0.896816;   B->A: 0.857436
   ||gamma^AB||*||gamma^BA||: 0.768963

 ------------------------------------------------------------------------------
 State A: ccsd: 0/Ag
 State B: cvs_eomee_ccsd/uhfref: 5/B2u
 Transition dipole moment (a.u.):
   A->B: 0.031415 (X 0.000000, Y -0.031415, Z 0.000000)
   B->A: 0.030518 (X 0.000000, Y -0.030518, Z 0.000000)
 Oscillator strength (a.u.): 0.006848
 Norm of one-particle transition density matrix:
   A->B: 0.896982;   B->A: 0.859482
   ||gamma^AB||*||gamma^BA||: 0.770940

 ------------------------------------------------------------------------------
 State A: ccsd: 0/Ag
 State B: cvs_eomee_ccsd/uhfref: 6/B2u
 Transition dipole moment (a.u.):
   A->B: 0.016723 (X 0.000000, Y 0.016723, Z 0.000000)
   B->A: 0.015927 (X 0.000000, Y 0.015927, Z 0.000000)
 Oscillator strength (a.u.): 0.001904
 Norm of one-particle transition density matrix:
   A->B: 0.894863;   B->A: 0.861786
   ||gamma^AB||*||gamma^BA||: 0.771181

 ------------------------------------------------------------------------------
 State A: ccsd: 0/Ag
 State B: cvs_eomee_ccsd/uhfref: 1/B3u
 Transition dipole moment (a.u.):
   A->B: 0.009158 (X 0.009158, Y 0.000000, Z 0.000000)
   B->A: 0.009119 (X 0.009119, Y 0.000000, Z 0.000000)
 Oscillator strength (a.u.): 0.000592
 Norm of one-particle transition density matrix:
   A->B: 0.907578;   B->A: 0.881346
   ||gamma^AB||*||gamma^BA||: 0.799890

 ------------------------------------------------------------------------------
 State A: ccsd: 0/Ag
 State B: cvs_eomee_ccsd/uhfref: 2/B3u
 Transition dipole moment (a.u.):
   A->B: 0.049333 (X 0.049333, Y 0.000000, Z 0.000000)
   B->A: 0.048117 (X 0.048117, Y 0.000000, Z 0.000000)
 Oscillator strength (a.u.): 0.016846
 Norm of one-particle transition density matrix:
   A->B: 0.903088;   B->A: 0.871832
   ||gamma^AB||*||gamma^BA||: 0.787341

 ------------------------------------------------------------------------------
 State A: ccsd: 0/Ag
 State B: cvs_eomee_ccsd/uhfref: 3/B3u
 Transition dipole moment (a.u.):
   A->B: 0.010480 (X -0.010480, Y 0.000000, Z 0.000000)
   B->A: 0.010170 (X -0.010170, Y 0.000000, Z 0.000000)
 Oscillator strength (a.u.): 0.000757
 Norm of one-particle transition density matrix:
   A->B: 0.907944;   B->A: 0.880905
   ||gamma^AB||*||gamma^BA||: 0.799812

 ------------------------------------------------------------------------------
 State A: ccsd: 0/Ag
 State B: cvs_eomee_ccsd/uhfref: 4/B3u
 Transition dipole moment (a.u.):
   A->B: 0.026703 (X 0.026703, Y 0.000000, Z 0.000000)
   B->A: 0.025757 (X 0.025757, Y 0.000000, Z 0.000000)
 Oscillator strength (a.u.): 0.004895
 Norm of one-particle transition density matrix:
   A->B: 0.899016;   B->A: 0.866204
   ||gamma^AB||*||gamma^BA||: 0.778731

 ------------------------------------------------------------------------------
 State A: ccsd: 0/Ag
 State B: cvs_eomee_ccsd/uhfref: 5/B3u
 Transition dipole moment (a.u.):
   A->B: 0.042220 (X -0.042220, Y 0.000000, Z 0.000000)
   B->A: 0.041094 (X -0.041094, Y 0.000000, Z 0.000000)
 Oscillator strength (a.u.): 0.012353
 Norm of one-particle transition density matrix:
   A->B: 0.902088;   B->A: 0.870349
   ||gamma^AB||*||gamma^BA||: 0.785132

 ------------------------------------------------------------------------------
 State A: ccsd: 0/Ag
 State B: cvs_eomee_ccsd/uhfref: 6/B3u
 Transition dipole moment (a.u.):
   A->B: 0.033513 (X -0.033513, Y 0.000000, Z 0.000000)
   B->A: 0.032093 (X -0.032093, Y 0.000000, Z 0.000000)
 Oscillator strength (a.u.): 0.007661
 Norm of one-particle transition density matrix:
   A->B: 0.900486;   B->A: 0.863388
   ||gamma^AB||*||gamma^BA||: 0.777469


 All requested transition properties have been computed

 Transition Properties:   CPU 107.74 s  wall 25.48 s

 Total ccman2 time:   CPU 46573.51 s  wall 7830.49 s


 --------------------------------------------------------------
             Orbital Energies (a.u.) and Symmetries
 --------------------------------------------------------------

 Alpha MOs, Unrestricted
 -- Occupied --                  
-11.495 -11.495 -11.494 -11.494 -11.442 -11.442  -1.403  -1.282
  1 B2u   1 Ag    1 B3u   1 B1g   2 B3u   2 Ag    3 Ag    2 B2u                
 -1.238  -1.063  -1.057  -0.938  -0.866  -0.860  -0.830  -0.801
  3 B3u   2 B1g   4 Ag    5 Ag    4 B3u   3 B2u   4 B2u   5 B3u                
 -0.757  -0.723  -0.720  -0.625  -0.547
  1 B1u   3 B1g   6 Ag    1 B3g   1 B2g                                        
 -- Virtual --                   
 -0.135  -0.089  -0.082  -0.073  -0.070  -0.068  -0.053  -0.052
  1 Au    7 Ag    2 B1u   5 B2u   6 B3u   3 B1u   8 Ag    4 B1g                
 -0.051  -0.048  -0.045  -0.028  -0.028  -0.026  -0.025  -0.023
  9 Ag    2 B3g   2 B2g   6 B2u   7 B3u   7 B2u  10 Ag    8 B3u                
 -0.023  -0.022  -0.010  -0.008  -0.008  -0.007  -0.003   0.003
  2 Au    4 B1u   8 B2u   5 B1g  11 Ag    9 B3u   3 B2g   6 B1g                
  0.004   0.024   0.027   0.028   0.040   0.048   0.049   0.074
 12 Ag    5 B1u  13 Ag   10 B3u   3 B3g   4 B2g   9 B2u  14 Ag                 
  0.076   0.079   0.079   0.086   0.088   0.095   0.097   0.105
  7 B1g   5 B2g  10 B2u   3 Au   11 B3u   6 B1u  15 Ag   11 B2u                
  0.112   0.121   0.126   0.127   0.127   0.142   0.144   0.152
 12 B3u   8 B1g  16 Ag   13 B3u  12 B2u   9 B1g  17 Ag   14 B3u                
  0.169   0.172   0.191   0.245   0.250   0.257   0.261   0.269
  6 B2g  18 Ag   10 B1g  13 B2u  15 B3u  16 B3u  11 B1g  19 Ag                 
  0.340   0.341   0.342   0.349   0.429   0.435   0.511   0.529
 14 B2u  12 B1g  17 B3u  20 Ag   15 B2u  21 Ag   18 B3u  16 B2u                
  0.530   0.549   0.551   0.555   0.556   0.558   0.586   0.601
  7 B1u  13 B1g  19 B3u  22 Ag   14 B1g   4 B3g   7 B2g  23 Ag                 
  0.611   0.642   0.690   0.704   0.735   0.738   0.743   0.753
  4 Au    8 B1u   8 B2g  20 B3u  21 B3u  17 B2u  15 B1g  24 Ag                 
  0.775   0.809   0.823   0.863   0.883   0.884   0.893   0.902
 25 Ag   18 B2u  22 B3u  16 B1g  26 Ag   23 B3u  19 B2u  24 B3u                
  0.918   0.938   0.992   0.995   1.003   1.079   1.111   1.155
 17 B1g   9 B1u  18 B1g  27 Ag    5 B3g   6 B3g   9 B2g  10 B1u                
  1.163   1.270   1.332   1.498   1.557   1.564   1.582   1.619
  5 Au   25 B3u  28 Ag   20 B2u  29 Ag   21 B2u  26 B3u  10 B2g                
  1.623   1.623   1.693   1.699   1.705   1.720   1.779   1.826
  6 Au   11 B1u  30 Ag   19 B1g  22 B2u  27 B3u  12 B1u   7 B3g                
  1.851   1.890   1.897   1.923   1.987   2.010   2.026   2.030
 11 B2g  20 B1g  31 Ag   23 B2u  12 B2g   8 B3g  24 B2u  28 B3u                
  2.036   2.085   2.116   2.124   2.138   2.165   2.412   2.424
 21 B1g  29 B3u  22 B1g  32 Ag    7 Au   13 B1u  13 B2g   8 Au                 
  2.521   2.533   2.560   2.609   2.627   2.715   2.725   2.767
 23 B1g  33 Ag   34 Ag   25 B2u  30 B3u  31 B3u  26 B2u  32 B3u                
  2.772   2.817   2.819   2.835   2.837   2.839   2.852   2.950
 35 Ag   33 B3u  27 B2u  24 B1g  14 B1u  34 B3u  36 Ag    9 B3g                
  2.985   3.039   3.046   3.084   3.106   3.121   3.245   3.320
 14 B2g   9 Au   25 B1g  15 B1u  26 B1g  37 Ag   15 B2g  28 B2u                
  3.528   3.549   3.671   3.688   3.706   3.844   4.158   4.182
 38 Ag   27 B1g  29 B2u  35 B3u  39 Ag   36 B3u  28 B1g  40 Ag                 
  4.254   4.298   4.305   4.898   5.037   5.215   5.229   5.535
 37 B3u  30 B2u  38 B3u  41 Ag   29 B1g  31 B2u  39 B3u  30 B1g                
  5.564   5.973  20.414  20.467  20.498  20.608  20.641  20.918
 42 Ag   40 B3u  43 Ag   32 B2u  41 B3u  31 B1g  44 Ag   42 B3u                
 79.986  80.044  80.073  80.164  80.196  80.404 321.830 321.882
 45 Ag   33 B2u  43 B3u  32 B1g  46 Ag   44 B3u  47 Ag   34 B2u                
321.909 321.985 322.015 322.1821431.4011431.4461431.4711431.532
 45 B3u  33 B1g  48 Ag   46 B3u  49 Ag   35 B2u  47 B3u  34 B1g                
*******1431.7008749.6418749.6768749.7008749.7468749.7758749.884
 50 Ag   48 B3u  51 Ag   36 B2u  49 B3u  35 B1g  52 Ag   50 B3u                

 Beta MOs, Unrestricted
 -- Occupied --                  
-11.487 -11.487 -11.486 -11.486 -11.449 -11.449  -1.377  -1.242
  1 Ag    1 B2u   1 B3u   1 B1g   2 B3u   2 Ag    3 Ag    3 B3u                
 -1.229  -1.051  -1.042  -0.934  -0.860  -0.853  -0.821  -0.803
  2 B2u   4 Ag    2 B1g   5 Ag    4 B3u   3 B2u   4 B2u   5 B3u                
 -0.721  -0.716  -0.670  -0.569
  3 B1g   6 Ag    1 B1u   1 B2g                                                
 -- Virtual --                   
 -0.249  -0.089  -0.073  -0.072  -0.070  -0.059  -0.052  -0.052
  1 B3g   7 Ag    5 B2u   2 B1u   6 B3u   3 B1u   8 Ag    4 B1g                
 -0.051  -0.046  -0.045  -0.045  -0.028  -0.028  -0.025  -0.024
  9 Ag    2 B3g   2 B2g   1 Au    6 B2u   7 B3u   7 B2u  10 Ag                 
 -0.024  -0.021  -0.018  -0.009  -0.008  -0.008  -0.007  -0.003
  8 B3u   4 B1u   2 Au    8 B2u  11 Ag    5 B1g   9 B3u   3 B2g                
  0.004   0.004   0.028   0.029   0.031   0.047   0.049   0.051
  6 B1g  12 Ag   10 B3u   5 B1u  13 Ag    4 B2g   9 B2u   3 B3g                
  0.074   0.077   0.088   0.088   0.089   0.097   0.098   0.103
 14 Ag    7 B1g  10 B2u  11 B3u   5 B2g   6 B1u  15 Ag    3 Au                 
  0.108   0.112   0.123   0.126   0.127   0.127   0.144   0.144
 11 B2u  12 B3u   8 B1g  16 Ag   13 B3u  12 B2u   9 B1g  17 Ag                 
  0.153   0.173   0.191   0.195   0.247   0.251   0.262   0.269
 14 B3u  18 Ag   10 B1g   6 B2g  13 B2u  15 B3u  16 B3u  19 Ag                 
  0.277   0.343   0.343   0.344   0.349   0.431   0.437   0.527
 11 B1g  12 B1g  17 B3u  14 B2u  20 Ag   15 B2u  21 Ag   18 B3u                
  0.547   0.551   0.552   0.553   0.560   0.566   0.586   0.596
 19 B3u  16 B2u   7 B1u  13 B1g  22 Ag   14 B1g   7 B2g   4 B3g                
  0.605   0.637   0.646   0.702   0.707   0.739   0.739   0.750
 23 Ag    8 B1u   4 Au    8 B2g  20 B3u  21 B3u  17 B2u  15 B1g                
  0.753   0.780   0.816   0.822   0.870   0.881   0.890   0.903
 24 Ag   25 Ag   18 B2u  22 B3u  16 B1g  26 Ag   23 B3u  19 B2u                
  0.903   0.920   0.955   0.997   1.001   1.030   1.109   1.110
 24 B3u  17 B1g   9 B1u  18 B1g  27 Ag    5 B3g   9 B2g   6 B3g                
  1.172   1.179   1.274   1.346   1.501   1.565   1.572   1.581
  5 Au   10 B1u  25 B3u  28 Ag   20 B2u  29 Ag   21 B2u  26 B3u                
  1.623   1.630   1.636   1.693   1.705   1.717   1.724   1.785
 10 B2g   6 Au   11 B1u  30 Ag   19 B1g  27 B3u  22 B2u  12 B1u                
  1.840   1.850   1.896   1.897   1.924   2.010   2.015   2.032
  7 B3g  11 B2g  20 B1g  31 Ag   23 B2u  12 B2g   8 B3g  28 B3u                
  2.036   2.036   2.089   2.125   2.126   2.156   2.165   2.421
 21 B1g  24 B2u  29 B3u  22 B1g  32 Ag    7 Au   13 B1u  13 B2g                
  2.435   2.529   2.533   2.561   2.610   2.626   2.718   2.726
  8 Au   23 B1g  33 Ag   34 Ag   25 B2u  30 B3u  31 B3u  26 B2u                
  2.769   2.773   2.819   2.820   2.836   2.839   2.852   2.856
 32 B3u  35 Ag   33 B3u  27 B2u  24 B1g  34 B3u  36 Ag   14 B1u                
  2.980   2.986   3.047   3.070   3.079   3.110   3.121   3.256
  9 B3g  14 B2g  25 B1g   9 Au   15 B1u  26 B1g  37 Ag   15 B2g                
  3.324   3.536   3.550   3.678   3.689   3.710   3.847   4.166
 28 B2u  38 Ag   27 B1g  29 B2u  35 B3u  39 Ag   36 B3u  28 B1g                
  4.182   4.260   4.304   4.307   4.904   5.043   5.223   5.231
 40 Ag   37 B3u  30 B2u  38 B3u  41 Ag   29 B1g  31 B2u  39 B3u                
  5.546   5.563   5.977  20.417  20.472  20.497  20.613  20.640
 30 B1g  42 Ag   40 B3u  43 Ag   32 B2u  41 B3u  31 B1g  44 Ag                 
 20.920  79.987  80.045  80.072  80.165  80.195  80.405 321.830
 42 B3u  45 Ag   33 B2u  43 B3u  32 B1g  46 Ag   44 B3u  47 Ag                 
321.883 321.909 321.985 322.015 322.1821431.4011431.4461431.471
 34 B2u  45 B3u  33 B1g  48 Ag   46 B3u  49 Ag   35 B2u  47 B3u                
*******1431.5621431.7008749.6418749.6768749.7008749.7468749.775
 34 B1g  50 Ag   48 B3u  51 Ag   36 B2u  49 B3u  35 B1g  52 Ag                 
*******
 50 B3u                                                                        
 --------------------------------------------------------------

          Ground-State Mulliken Net Atomic Charges

     Atom                 Charge (a.u.)    Spin (a.u.)
  --------------------------------------------------------
      1 H                     0.276428       0.019705
      2 C                    -0.271064      -0.453970
      3 C                    -0.058162       0.500440
      4 H                     0.305480      -0.033307
      5 C                    -0.058162       0.500440
      6 H                     0.305480      -0.033307
      7 C                    -0.271064      -0.453970
      8 H                     0.276428       0.019705
      9 C                    -0.058162       0.500440
     10 H                     0.305480      -0.033307
     11 C                    -0.058162       0.500440
     12 H                     0.305480      -0.033307
  --------------------------------------------------------
  Sum of atomic charges =     1.000000
  Sum of spin   charges =     1.000000

 -----------------------------------------------------------------
                    Cartesian Multipole Moments
 -----------------------------------------------------------------
    Charge (ESU x 10^10)
                 4.8032
    Dipole Moment (Debye)
         X      -0.0000      Y      -0.0000      Z       0.0000
       Tot       0.0000
    Quadrupole Moments (Debye-Ang)
        XX     -22.8122     XY      -0.0000     YY     -17.9126
        XZ      -0.0000     YZ      -0.0000     ZZ     -36.0327
    Octopole Moments (Debye-Ang^2)
       XXX       0.0000    XXY      -0.0000    XYY       0.0000
       YYY      -0.0000    XXZ      -0.0000    XYZ       0.0000
       YYZ       0.0000    XZZ      -0.0000    YZZ      -0.0000
       ZZZ       0.0000
    Hexadecapole Moments (Debye-Ang^3)
      XXXX    -218.6018   XXXY      -0.0000   XXYY     -67.2437
      XYYY       0.0000   YYYY    -197.6939   XXXZ       0.0000
      XXYZ      -0.0000   XYYZ       0.0000   YYYZ      -0.0000
      XXZZ     -58.4375   XYZZ      -0.0000   YYZZ     -53.1289
      XZZZ       0.0000   YZZZ      -0.0000   ZZZZ     -39.2930
 -----------------------------------------------------------------
Archival summary:
1\1\node24\SP\ProcedureUnspecified\BasisUnspecified\66(1+,2)\krylov\SatOct1303:10:142018SatOct1303:10:142018\0\\#,ProcedureUnspecified,BasisUnspecified,\\1,2\C\H,1,1.08144\C,1,1.39359,2,120\H,3,1.08144,1,120,2,-0,0\C,3,1.39359,1,120,2,180,0\H,5,1.08144,3,120,1,180,0\C,5,1.39359,3,120,1,-0,0\H,7,1.08144,5,120,3,180,0\C,7,1.39359,5,120,3,0,0\H,9,1.08144,7,120,5,180,0\C,9,1.39359,7,120,5,-0,0\H,11,1.08144,9,120,7,-180,0\\HF=-230.46544\\@

 Total job time:  7860.36s(wall), 46633.10s(cpu) 
 Sat Oct 13 03:10:14 2018

        *************************************************************
        *                                                           *
        *  Thank you very much for using Q-Chem.  Have a nice day.  *
        *                                                           *
        *************************************************************


