Q-Chem Developer Version!
                  Welcome to Q-Chem
     A Quantum Leap Into The Future Of Chemistry


 Q-Chem 5.1, Q-Chem, Inc., Pleasanton, CA (2018)

 Yihan Shao,  Zhengting Gan,  E. Epifanovsky,  A. T. B. Gilbert,  M. Wormit,  
 J. Kussmann,  A. W. Lange,  A. Behn,  Jia Deng,  Xintian Feng,  D. Ghosh,  
 M. Goldey,  P. R. Horn,  L. D. Jacobson,  I. Kaliman,  T. Kus,  A. Landau,  
 Jie Liu,  E. I. Proynov,  R. M. Richard,  R. P. Steele,  E. J. Sundstrom,  
 H. L. Woodcock III,  P. M. Zimmerman,  D. Zuev,  B. Albrecht,  E. Alguire,  
 S. A. Baeppler,  D. Barton,  Z. Benda,  Y. A. Bernard,  E. J. Berquist,  
 K. B. Bravaya,  H. Burton,  D. Casanova,  Chun-Min Chang,  Yunqing Chen,  
 A. Chien,  K. D. Closser,  M. P. Coons,  S. Coriani,  S. Dasgupta,  
 A. L. Dempwolff,  M. Diedenhofen,  Hainam Do,  R. G. Edgar,  Po-Tung Fang,  
 S. Faraji,  S. Fatehi,  Qingguo Feng,  K. D. Fenk,  J. Fosso-Tande,  
 Qinghui Ge,  A. Ghysels,  G. Gidofalvi,  J. Gomes,  J. Gonthier,  A. Gunina,  
 D. Hait,  M. W. D. Hanson-Heine,  P. H. P. Harbach,  A. W. Hauser,  
 J. E. Herr,  E. G. Hohenstein,  Z. C. Holden,  Kerwin Hui,  B. C. Huynh,  
 T.-C. Jagau,  Hyunjun Ji,  B. Kaduk,  K. Khistyaev,  Jaehoon Kim,  
 P. Klunzinger,  K. Koh,  D. Kosenkov,  L. Koulias,  T. Kowalczyk,  
 C. M. Krauter,  A. Kunitsa,  Ka Un Lao,  A. Laurent,  K. V. Lawler,  
 Joonho Lee,  D. Lefrancois,  S. Lehtola,  D. S. Levine,  Yi-Pei Li,  
 You-Sheng Lin,  Fenglai Liu,  E. Livshits,  A. Luenser,  P. Manohar,  
 E. Mansoor,  S. F. Manzer,  Shan-Ping Mao,  Yuezhi Mao,  N. Mardirossian,  
 A. V. Marenich,  T. Markovich,  L. A. Martinez-Martinez,  S. A. Maurer,  
 N. J. Mayhall,  S. C. McKenzie,  J.-M. Mewes,  A. F. Morrison,  
 J. W. Mullinax,  K. Nanda,  T. S. Nguyen-Beck,  R. Olivares-Amaya,  
 J. A. Parkhill,  T. M. Perrine,  F. Plasser,  P. Pokhilko,  S. Prager,  
 A. Prociuk,  E. Ramos,  D. R. Rehn,  F. Rob,  M. Schneider,  N. Sergueev,  
 S. M. Sharada,  S. Sharma,  D. W. Small,  T. Stauch,  T. Stein,  
 Yu-Chuan Su,  A. J. W. Thom,  A. Tkatchenko,  T. Tsuchimochi,  N. M. Tubman,  
 L. Vogt,  M. L. Vidal,  O. Vydrov,  M. A. Watson,  J. Wenzel,  
 M. de Wergifosse,  T. A. Wesolowski,  A. White,  J. Witte,  A. Yamada,  
 Jun Yang,  K. Yao,  S. Yeganeh,  S. R. Yost,  Zhi-Qiang You,  A. Zech,  
 Igor Ying Zhang,  Xing Zhang,  Yan Zhao,  Ying Zhu,  B. R. Brooks,  
 G. K. L. Chan,  C. J. Cramer,  M. S. Gordon,  W. J. Hehre,  A. Klamt,  
 M. W. Schmidt,  C. D. Sherrill,  D. G. Truhlar,  A. Aspuru-Guzik,  R. Baer,  
 A. T. Bell,  N. A. Besley,  Jeng-Da Chai,  A. E. DePrince, III,  
 R. A. DiStasio Jr.,  A. Dreuw,  B. D. Dunietz,  T. R. Furlani,  
 Chao-Ping Hsu,  Yousung Jung,  Jing Kong,  D. S. Lambrecht,  WanZhen Liang,  
 C. Ochsenfeld,  V. A. Rassolov,  L. V. Slipchenko,  J. E. Subotnik,  
 T. Van Voorhis,  J. M. Herbert,  A. I. Krylov,  P. M. W. Gill,  M. Head-Gordon

 Contributors to earlier versions of Q-Chem not listed above: 
 R. D. Adamson,  B. Austin,  J. Baker,  G. J. O. Beran,  K. Brandhorst,  
 S. T. Brown,  E. F. C. Byrd,  A. K. Chakraborty,  C.-L. Cheng,  
 Siu Hung Chien,  D. M. Chipman,  D. L. Crittenden,  H. Dachsel,  
 R. J. Doerksen,  A. D. Dutoi,  L. Fusti-Molnar,  W. A. Goddard III,  
 A. Golubeva-Zadorozhnaya,  S. R. Gwaltney,  G. Hawkins,  A. Heyden,  
 S. Hirata,  G. Kedziora,  F. J. Keil,  C. Kelley,  Jihan Kim,  R. A. King,  
 R. Z. Khaliullin,  P. P. Korambath,  W. Kurlancheek,  A. M. Lee,  M. S. Lee,  
 S. V. Levchenko,  Ching Yeh Lin,  D. Liotard,  R. C. Lochan,  I. Lotan,  
 P. E. Maslen,  N. Nair,  D. P. O'Neill,  D. Neuhauser,  E. Neuscamman,  
 C. M. Oana,  R. Olson,  B. Peters,  R. Peverati,  P. A. Pieniazek,  
 Y. M. Rhee,  J. Ritchie,  M. A. Rohrdanz,  E. Rosta,  N. J. Russ,  
 H. F. Schaefer III,  N. E. Schultz,  N. Shenvi,  A. C. Simmonett,  A. Sodt,  
 D. Stuck,  K. S. Thanthiriwatte,  V. Vanovschi,  Tao Wang,  A. Warshel,  
 C. F. Williams,  Q. Wu,  X. Xu,  W. Zhang

 Please cite Q-Chem as follows:
 Y. Shao et al., Mol. Phys. 113, 184-215 (2015)
 DOI: 10.1080/00268976.2014.952696

 Q-Chem 5.1.1 for Intel X86 EM64T Linux

 Parts of Q-Chem use Armadillo 8.300.2 (Tropical Shenanigans).
 http://arma.sourceforge.net/

 Q-Chem begins on Thu Dec  6 04:12:47 2018  


Host: 0

     Scratch files written to /work1/malop/qc_7495364.hnode2//
Input Ideriv = 0
Curr. Ideriv = -1
Max.  Ideriv = 0

Checking the input file for inconsistencies... 	...done.

--------------------------------------------------------------
User input:
--------------------------------------------------------------
$comment
EOM-CCSD/cc-pVTZ optimized geometry for B3g cation 
NEXAFS
basis = 6-311(2+,+)G** (ucC)
$end

$molecule
+1 2
H         1.2392908131   -2.1390691708    0.0000000000
C         0.7225974533   -1.1894682957    0.0000000000
C        -0.7225974533   -1.1894682957    0.0000000000
H        -1.2392908131   -2.1390691708    0.0000000000
C        -1.4341864916    0.0000000000    0.0000000000
H        -2.5128824541    0.0000000000    0.0000000000
C        -0.7225974533    1.1894682957    0.0000000000
H        -1.2392908131    2.1390691708    0.0000000000
C         0.7225974533    1.1894682957    0.0000000000
H         1.2392908131    2.1390691708    0.0000000000
C         1.4341864916    0.0000000000    0.0000000000
H         2.5128824541    0.0000000000    0.0000000000
$end

$rem
   JOB_TYPE  =  SP
   BASIS  =  general
   METHOD  =  EOM-CCSD
   CVS_EE_STATES = [0,0,0,0,0,10,10,10]
   eom_preconv_singles = true
   n_frozen_core = fc
   cc_trans_prop = true
   use_libqints = 1   !use new int library (will be def in trunk)
   cc_memory = 100000
   EOM_DAVIDSON_MAX_ITER 200
   EOM_DAVIDSON_MAXVECTORS = 1000
   eom_davidson_convergence = 4
   eom_shift = 10000
   state_analysis = true
   molden_format  = true
   nto_pairs      = 4
   pop_mulliken   = true
$end

$basis
H    0
6-311(2+,+)G**
****
C    0
S    1    1.000000
   4.56324000E+03    1.96665000E-03
S    1    1.000000
   6.82024000E+02    1.52306000E-02
S    1    1.000000
   1.54973000E+02    7.61269000E-02
S    1    1.000000
   4.44553000E+01    2.60801000E-01
S    1    1.000000
   1.30290000E+01    6.16462000E-01
S    1    1.000000
   1.82773000E+00    2.21006000E-01
SP   3    1.000000
   2.09642000E+01    1.14660000E-01   4.02487000E-02
   4.80331000E+00    9.19999000E-01   2.37594000E-01
   1.45933000E+00   -3.03068000E-03   8.15854000E-01
SP   1    1.000000
   4.83456000E-01    1.00000000E+00   1.00000000E+00
SP   1    1.000000
   1.45585000E-01    1.00000000E+00   1.00000000E+00
SP   1    1.000000
   4.38000000E-02    1.00000000E+00   1.00000000E+00
SP   1    1.000000
   1.31927711E-02    1.00000000E+00   1.00000000E+00
D    1    1.000000
   6.26000000E-01    1.00000000E+00
****
end

--------------------------------------------------------------

 Q-Chem warning in module forms1/BasisType.C, line 1761:

 Setting pure/cartesian flag to 2111 for general basis


 Requested basis set is non-standard
 There are 102 shells and 228 basis functions
MEM_TOTAL is adjusted to CC_MEMORY + MEM_STATIC!
 Total memory of 100192MB is distributed as follows: 
   QALLOC including MEM_STATIC uses 192MB
   MEM_STATIC is set to 192MB
   CCMAN JOB total memory use is  100000MB
 Warning: actual memory use might exceed 100192MB

 Total QAlloc Memory Limit    192 MB
 Mega-Array Size       188 MB
 MEM_STATIC part       192 MB
 ----------------------------------------------------------------
             Standard Nuclear Orientation (Angstroms)
    I     Atom           X                Y                Z
 ----------------------------------------------------------------
    1      H      -1.2392908131    -2.1390691708    -0.0000000000
    2      C      -0.7225974533    -1.1894682957    -0.0000000000
    3      C       0.7225974533    -1.1894682957     0.0000000000
    4      H       1.2392908131    -2.1390691708     0.0000000000
    5      C       1.4341864916     0.0000000000     0.0000000000
    6      H       2.5128824541     0.0000000000     0.0000000000
    7      C       0.7225974533     1.1894682957     0.0000000000
    8      H       1.2392908131     2.1390691708     0.0000000000
    9      C      -0.7225974533     1.1894682957    -0.0000000000
   10      H      -1.2392908131     2.1390691708    -0.0000000000
   11      C      -1.4341864916    -0.0000000000    -0.0000000000
   12      H      -2.5128824541    -0.0000000000    -0.0000000000
 ----------------------------------------------------------------
 Molecular Point Group                 D2h   NOp =  8
 Largest Abelian Subgroup              D2h   NOp =  8
 Nuclear Repulsion Energy =   202.3007569030 hartrees
 There are       21 alpha and       20 beta electrons

                       Distance Matrix (Angstroms)
             H (  1)   C (  2)   C (  3)   H (  4)   C (  5)   H (  6)
   C (  2)  1.081071
   C (  3)  2.179621  1.445195
   H (  4)  2.478582  2.179621  1.081071
   C (  5)  3.423901  2.463037  1.386071  2.147930
   H (  6)  4.319076  3.447197  2.149408  2.489509  1.078696
   C (  7)  3.863699  2.783510  2.378937  3.368402  1.386071  2.149408
   H (  8)  4.944273  3.863699  3.368402  4.278138  2.147930  2.489509
   C (  9)  3.368402  2.378937  2.783510  3.863699  2.463037  3.447197
   H ( 10)  4.278138  3.368402  3.863699  4.944273  3.423901  4.319076
   C ( 11)  2.147930  1.386071  2.463037  3.423901  2.868373  3.947069
   H ( 12)  2.489509  2.149408  3.447197  4.319076  3.947069  5.025765
             C (  7)   H (  8)   C (  9)   H ( 10)   C ( 11)
   H (  8)  1.081071
   C (  9)  1.445195  2.179621
   H ( 10)  2.179621  2.478582  1.081071
   C ( 11)  2.463037  3.423901  1.386071  2.147930
   H ( 12)  3.447197  4.319076  2.149408  2.489509  1.078696

 A cutoff of  1.0D-14 yielded   4620 shell pairs
 There are     25527 function pairs (     26946 Cartesian)

 -------------------------------------------------------
 OpenMP Integral Computing Module                       
 Release: version 1.0, May 2013, Q-Chem Inc. Pittsburgh 
 -------------------------------------------------------
 Integral Job Info:
 Integral job number is                      11
 Integral operator is                         1
 short-range coefficients                     0
 long-range coefficients              100000000
 Omega coefficients                           0
 if combine SR and LR in K                    0
 Integral screening is                        0
 Integral computing path is                   2
 max size of driver memory is            800000
 size of driver memory is                593474
 size of scratch memory is              1367512
 max col of scratch BK array               1296
 max len of scratch array in speh3          155
 max len of scratch index in speh4           18
 max int batch size is                      520
 min int batch size is                       52
 fixed nKL is                                52
 max L of basis functions is                  2
 order of int derivative is                   0
 number of shells is                        102
 number of basis is                         234
 number of cartesian basis is               234
 number of contracted shell pairs          4620
 number of primitive shell pairs           6378
 maxK2 (contraction) of shell pair            9
 max number of K2 of shell pair               1
 max number of CS2 of shell pair           1374
 max number of PS2 of shell pair           1374
 mem total for path MDJ                  537338
 -------------------------------------------------------
 Smallest overlap matrix eigenvalue = 1.01E-08
 Linear dependence detected in AO basis
 Tighter screening thresholds may be required for diffuse basis sets
 Use S2THRESH > 14 and THRESH = 14 in case of SCF convergence issues
 Number of orthogonalized atomic orbitals = 221
 Maximum deviation from orthogonality = 2.430E-11

 Scale SEOQF with 1.000000e-01/1.000000e-01/1.000000e-01

 Standard Electronic Orientation quadrupole field applied
 Nucleus-field energy     =     0.0000000057 hartrees
 Guess MOs from core Hamiltonian diagonalization

 -----------------------------------------------------------------------
  General SCF calculation program by
  Eric Jon Sundstrom, Paul Horn, Yuezhi Mao, Dmitri Zuev, Alec White,
  David Stuck, Shaama M.S., Shane Yost, Joonho Lee, David Small,
  Daniel Levine, Susi Lehtola, Hugh Burton, Evgeny Epifanovsky
 -----------------------------------------------------------------------
 Hartree-Fock
 A unrestricted SCF calculation will be
 performed using DIIS
 SCF converges when DIIS error is below 1.0e-08
 ---------------------------------------
  Cycle       Energy         DIIS error
 ---------------------------------------
    1    -187.5254635038      4.19e-02  
    2    -174.5440774398      2.20e-02  
    3    -222.0364909835      1.65e-02  
    4    -229.2877890676      6.34e-03  
    5    -230.2215422910      2.98e-03  
    6    -230.4336923632      1.09e-03  
    7    -230.4695065829      1.55e-04  
    8    -230.4706412268      4.13e-05  
    9    -230.4707980589      2.11e-05  
   10    -230.4708720833      8.11e-06  
   11    -230.4708826922      1.15e-06  
   12    -230.4708827791      3.94e-07  
   13    -230.4708827926      1.29e-07  
   14    -230.4708827942      3.06e-08  
   15    -230.4708827942      6.81e-09  Convergence criterion met
 ---------------------------------------
 SCF time:   CPU 234.80s  wall 25.00s 
<S^2> =          0.868989025
 SCF   energy in the final basis set =     -230.4708827942
 Total energy in the final basis set =     -230.4708827942


 ------------------------------------------------------------------------------

   CCMAN2: suite of methods based on coupled cluster
           and equation of motion theories.

   Components:
   * libvmm-1.3-trunk
     by Evgeny Epifanovsky, Ilya Kaliman.
   * libtensor-2.5-trunk
     by Evgeny Epifanovsky, Michael Wormit, Dmitry Zuev, Sam Manzer, 
        Ilya Kaliman.
   * libcc-2.5-trunk
     by Evgeny Epifanovsky, Arik Landau, Tomasz Kus, Kirill Khistyaev, 
        Dmitry Zuev, Prashant Manohar, Xintian Feng, Anna Krylov, 
        Matthew Goldey, Alec White, Thomas Jagau, Kaushik Nanda, 
        Anastasia Gunina, Alexander Kunitsa, Joonho Lee.

   CCMAN original authors:
   Anna I. Krylov, C. David Sherrill, Steven R. Gwaltney,
   Edward F. C. Byrd (2000)
   Sergey V. Levchenko, Lyudmila V. Slipchenko, Tao Wang,
   Ana-Maria C. Cristian (2003)
   Piotr A. Pieniazek, C. Melania Oana, Evgeny Epifanovsky (2007)
   Prashant Manohar (2009)

 ------------------------------------------------------------------------------


 Allocating and initializing 100000MB of RAM...
 Calculation will run on 10 cores.


 Alpha MOs, Unrestricted
 -- Occupied --                  
-11.498 -11.498 -11.497 -11.497 -11.442 -11.442  -1.393  -1.263
  1 B2u   1 Ag    1 B3u   1 B1g   2 B3u   2 Ag    3 Ag    2 B2u                
 -1.247  -1.066  -1.048  -0.934  -0.869  -0.853  -0.816  -0.812
  3 B3u   2 B1g   4 Ag    5 Ag    4 B3u   3 B2u   4 B2u   5 B3u                
 -0.749  -0.727  -0.716  -0.609  -0.557
  1 B1u   3 B1g   6 Ag    1 B3g   1 B2g                                        
 -- Virtual --                   
 -0.144  -0.089  -0.078  -0.073  -0.070  -0.067  -0.053  -0.052
  1 Au    7 Ag    2 B1u   5 B2u   6 B3u   3 B1u   8 Ag    4 B1g                
 -0.051  -0.047  -0.045  -0.028  -0.028  -0.025  -0.024  -0.024
  9 Ag    2 B3g   2 B2g   6 B2u   7 B3u   7 B2u  10 Ag    8 B3u                
 -0.023  -0.021  -0.009  -0.008  -0.008  -0.007  -0.003   0.003
  2 Au    4 B1u   8 B2u  11 Ag    5 B1g   9 B3u   3 B2g   6 B1g                
  0.005   0.025   0.027   0.028   0.041   0.047   0.049   0.074
 12 Ag    5 B1u  10 B3u  13 Ag    3 B3g   4 B2g   9 B2u  14 Ag                 
  0.074   0.077   0.080   0.086   0.088   0.096   0.098   0.107
  7 B1g   5 B2g  10 B2u   3 Au   11 B3u   6 B1u  15 Ag   11 B2u                
  0.112   0.121   0.125   0.126   0.127   0.142   0.144   0.151
 12 B3u   8 B1g  13 B3u  16 Ag   12 B2u   9 B1g  17 Ag   14 B3u                
  0.166   0.171   0.191   0.235   0.242   0.251   0.256   0.274
  6 B2g  18 Ag   10 B1g  15 B3u  11 B1g  13 B2u  16 B3u  19 Ag                 
  0.336   0.338   0.339   0.351   0.431   0.433   0.502   0.532
 17 B3u  12 B1g  14 B2u  20 Ag   15 B2u  21 Ag   18 B3u  13 B1g                
  0.533   0.535   0.550   0.555   0.562   0.563   0.586   0.602
  7 B1u  16 B2u  19 B3u  14 B1g  22 Ag    4 B3g   7 B2g  23 Ag                 
  0.609   0.644   0.688   0.706   0.724   0.724   0.745   0.767
  4 Au    8 B1u   8 B2g  20 B3u  15 B1g  21 B3u  17 B2u  24 Ag                 
  0.776   0.809   0.820   0.863   0.873   0.882   0.895   0.897
 25 Ag   18 B2u  22 B3u  16 B1g  23 B3u  26 Ag   19 B2u  24 B3u                
  0.909   0.941   0.991   0.993   0.998   1.088   1.100   1.147
 17 B1g   9 B1u  27 Ag   18 B1g   5 B3g   6 B3g   9 B2g  10 B1u                
  1.163   1.267   1.341   1.489   1.547   1.560   1.573   1.606
  5 Au   25 B3u  28 Ag   20 B2u  29 Ag   26 B3u  21 B2u   6 Au                 
  1.613   1.628   1.687   1.690   1.703   1.708   1.783   1.836
 10 B2g  11 B1u  30 Ag   19 B1g  22 B2u  27 B3u  12 B1u   7 B3g                
  1.843   1.885   1.887   1.918   1.968   2.006   2.008   2.032
 11 B2g  20 B1g  31 Ag   23 B2u  12 B2g   8 B3g  28 B3u  21 B1g                
  2.033   2.083   2.096   2.116   2.132   2.180   2.404   2.404
 24 B2u  29 B3u  22 B1g   7 Au   32 Ag   13 B1u  13 B2g   8 Au                 
  2.509   2.509   2.567   2.617   2.617   2.693   2.718   2.753
 33 Ag   23 B1g  34 Ag   30 B3u  25 B2u  31 B3u  26 B2u  32 B3u                
  2.770   2.812   2.820   2.835   2.835   2.840   2.848   2.948
 35 Ag   33 B3u  27 B2u  24 B1g  14 B1u  34 B3u  36 Ag    9 B3g                
  2.982   3.029   3.030   3.068   3.088   3.127   3.236   3.284
 14 B2g  25 B1g   9 Au   26 B1g  15 B1u  37 Ag   15 B2g  28 B2u                
  3.458   3.560   3.635   3.701   3.703   3.803   4.147   4.189
 38 Ag   27 B1g  29 B2u  35 B3u  39 Ag   36 B3u  28 B1g  40 Ag                 
  4.238   4.283   4.323   4.894   5.004   5.213   5.222   5.484
 37 B3u  30 B2u  38 B3u  41 Ag   29 B1g  39 B3u  31 B2u  30 B1g                
  5.586   5.942  20.400  20.454  20.499  20.587  20.647  20.902
 42 Ag   40 B3u  43 Ag   32 B2u  41 B3u  31 B1g  44 Ag   42 B3u                
 79.974  80.032  80.071  80.143  80.201  80.390 321.819 321.871
 45 Ag   33 B2u  43 B3u  32 B1g  46 Ag   44 B3u  47 Ag   34 B2u                
321.907 321.966 322.019 322.1701431.3911431.4351431.4691431.516
 45 B3u  33 B1g  48 Ag   46 B3u  49 Ag   35 B2u  47 B3u  34 B1g                
*******1431.6898749.6328749.6668749.6988749.7328749.7788749.876
 50 Ag   48 B3u  51 Ag   36 B2u  49 B3u  35 B1g  52 Ag   50 B3u                

 Beta MOs, Unrestricted
 -- Occupied --                  
-11.490 -11.490 -11.489 -11.489 -11.449 -11.449  -1.370  -1.251
  1 Ag    1 B2u   1 B3u   1 B1g   2 B3u   2 Ag    3 Ag    3 B3u                
 -1.212  -1.045  -1.042  -0.930  -0.862  -0.847  -0.814  -0.806
  2 B2u   2 B1g   4 Ag    5 Ag    4 B3u   3 B2u   5 B3u   4 B2u                
 -0.725  -0.711  -0.668  -0.576
  3 B1g   6 Ag    1 B1u   1 B2g                                                
 -- Virtual --                   
 -0.239  -0.089  -0.072  -0.071  -0.070  -0.057  -0.052  -0.052
  1 B3g   7 Ag    5 B2u   2 B1u   6 B3u   3 B1u   8 Ag    4 B1g                
 -0.051  -0.050  -0.045  -0.045  -0.028  -0.028  -0.025  -0.024
  9 Ag    1 Au    2 B2g   2 B3g   6 B2u   7 B3u   7 B2u  10 Ag                 
 -0.024  -0.020  -0.019  -0.009  -0.008  -0.008  -0.007  -0.003
  8 B3u   4 B1u   2 Au    8 B2u  11 Ag    5 B1g   9 B3u   3 B2g                
  0.003   0.005   0.028   0.030   0.032   0.047   0.049   0.052
  6 B1g  12 Ag   10 B3u   5 B1u  13 Ag    4 B2g   9 B2u   3 B3g                
  0.074   0.076   0.087   0.088   0.089   0.098   0.099   0.101
 14 Ag    7 B1g  11 B3u   5 B2g  10 B2u   6 B1u  15 Ag    3 Au                 
  0.109   0.112   0.122   0.126   0.126   0.127   0.144   0.145
 11 B2u  12 B3u   8 B1g  16 Ag   13 B3u  12 B2u   9 B1g  17 Ag                 
  0.152   0.172   0.191   0.191   0.239   0.253   0.259   0.260
 14 B3u  18 Ag   10 B1g   6 B2g  15 B3u  13 B2u  16 B3u  11 B1g                
  0.274   0.338   0.341   0.343   0.351   0.433   0.435   0.517
 19 Ag   17 B3u  12 B1g  14 B2u  20 Ag   15 B2u  21 Ag   18 B3u                
  0.539   0.545   0.553   0.556   0.562   0.565   0.586   0.601
 13 B1g  19 B3u   7 B1u  16 B2u  14 B1g  22 Ag    7 B2g   4 B3g                
  0.606   0.641   0.643   0.701   0.709   0.727   0.730   0.747
 23 Ag    8 B1u   4 Au    8 B2g  20 B3u  21 B3u  15 B1g  17 B2u                
  0.768   0.780   0.817   0.820   0.870   0.878   0.881   0.897
 24 Ag   25 Ag   18 B2u  22 B3u  16 B1g  23 B3u  26 Ag   24 B3u                
  0.905   0.911   0.959   0.995   0.998   1.027   1.099   1.117
 19 B2u  17 B1g   9 B1u  27 Ag   18 B1g   5 B3g   9 B2g   6 B3g                
  1.169   1.172   1.270   1.357   1.492   1.557   1.559   1.580
 10 B1u   5 Au   25 B3u  28 Ag   20 B2u  29 Ag   26 B3u  21 B2u                
  1.614   1.617   1.640   1.686   1.695   1.706   1.723   1.788
  6 Au   10 B2g  11 B1u  30 Ag   19 B1g  27 B3u  22 B2u  12 B1u                
  1.843   1.850   1.886   1.892   1.918   1.991   2.011   2.012
 11 B2g   7 B3g  31 Ag   20 B1g  23 B2u  12 B2g   8 B3g  28 B3u                
  2.033   2.043   2.085   2.104   2.133   2.134   2.180   2.412
 21 B1g  24 B2u  29 B3u  22 B1g   7 Au   32 Ag   13 B1u  13 B2g                
  2.415   2.508   2.517   2.568   2.616   2.618   2.697   2.719
  8 Au   33 Ag   23 B1g  34 Ag   30 B3u  25 B2u  31 B3u  26 B2u                
  2.755   2.770   2.814   2.821   2.835   2.839   2.848   2.853
 32 B3u  35 Ag   33 B3u  27 B2u  24 B1g  34 B3u  36 Ag   14 B1u                
  2.977   2.984   3.031   3.061   3.072   3.082   3.126   3.246
  9 B3g  14 B2g  25 B1g   9 Au   26 B1g  15 B1u  37 Ag   15 B2g                
  3.289   3.466   3.561   3.639   3.702   3.706   3.805   4.155
 28 B2u  38 Ag   27 B1g  29 B2u  35 B3u  39 Ag   36 B3u  28 B1g                
  4.189   4.245   4.288   4.324   4.898   5.011   5.216   5.230
 40 Ag   37 B3u  30 B2u  38 B3u  41 Ag   29 B1g  39 B3u  31 B2u                
  5.494   5.585   5.946  20.403  20.459  20.499  20.592  20.645
 30 B1g  42 Ag   40 B3u  43 Ag   32 B2u  41 B3u  31 B1g  44 Ag                 
 20.903  79.975  80.034  80.071  80.144  80.200  80.391 321.819
 42 B3u  45 Ag   33 B2u  43 B3u  32 B1g  46 Ag   44 B3u  47 Ag                 
321.872 321.907 321.966 322.019 322.1701431.3911431.4351431.469
 34 B2u  45 B3u  33 B1g  48 Ag   46 B3u  49 Ag   35 B2u  47 B3u                
*******1431.5651431.6898749.6328749.6668749.6988749.7328749.778
 34 B1g  50 Ag   48 B3u  51 Ag   36 B2u  49 B3u  35 B1g  52 Ag                 
*******

 Occupation and symmetry of molecular orbitals

 Point group: D2h (8 irreducible representations).

                           Ag   B1g  B2g  B3g  Au   B1u  B2u  B3u   All 
 ------------------------------------------------------------------------
 All molecular orbitals:
  - Alpha                  52   35   15   9    9    15   36   50    221 
  - Beta                   52   35   15   9    9    15   36   50    221 
 ------------------------------------------------------------------------
 Alpha orbitals:
  - Frozen occupied        2    1    0    0    0    0    1    2     6   
  - Active occupied        4    2    1    1    0    1    3    3     15  
  - Active virtual         46   32   14   8    9    14   32   45    200 
  - Frozen virtual         0    0    0    0    0    0    0    0     0   
 ------------------------------------------------------------------------
 Beta orbitals:
  - Frozen occupied        2    1    0    0    0    0    1    2     6   
  - Active occupied        4    2    1    0    0    1    3    3     14  
  - Active virtual         46   32   14   9    9    14   32   45    201 
  - Frozen virtual         0    0    0    0    0    0    0    0     0   
 ------------------------------------------------------------------------

 Import integrals:   CPU 0.00 s  wall 0.00 s

 Import integrals:   CPU 1708.78 s  wall 345.50 s

 MP2 amplitudes:   CPU 14.76 s  wall 5.20 s

Running a double precision version
           CCSD T amplitudes will be solved using DIIS.

           Start     Size      MaxIter   EConv     TConv     
           3         7         100       1.00e-06  1.00e-04  
 ------------------------------------------------------------------------------
           Energy (a.u.)   Ediff      Tdiff       Comment
 ------------------------------------------------------------------------------
          -231.24366502                           
     1    -231.26270037   1.90e-02   8.69e-01     
     2    -231.28617339   2.35e-02   1.07e-01     
     3    -231.28854008   2.37e-03   3.85e-02     
     4    -231.29164581   3.11e-03   1.46e-02     Switched to DIIS steps.
     5    -231.29304461   1.40e-03   1.26e-02     
     6    -231.29322483   1.80e-04   4.16e-03     
     7    -231.29325020   2.54e-05   1.19e-03     
     8    -231.29326619   1.60e-05   5.02e-04     
     9    -231.29326726   1.06e-06   1.09e-04     
    10    -231.29326765   3.96e-07   3.81e-05     
 ------------------------------------------------------------------------------
          -231.29326765                           CCSD T converged.

End of double precision
 SCF energy                 = -230.47088279
 MP2 energy                 = -231.24366502
 CCSD correlation energy     =   -0.82238486
 CCSD total energy           = -231.29326765

 CCSD  T1^2 = 0.0248  T2^2 = 0.3232  Leading amplitudes:

 Amplitude    Orbitals with energies
 -0.0846       1 (B1u) B                 ->    3 (B1u) B                  
              -0.6677                         -0.0567                     
 -0.0503       1 (B2g) B                 ->    6 (B2g) B                  
              -0.5759                          0.1911                     
  0.0456       1 (B1u) B                 ->    2 (B1u) B                  
              -0.6677                         -0.0710                     
 -0.0407       1 (B1u) A                 ->    2 (B1u) A                  
              -0.7488                         -0.0782                     

 Amplitude    Orbitals with energies
 -0.0656       1 (B2g) A     1 (B1u) B   ->    1 (Au) A      1 (B3g) B    
              -0.5568       -0.6677           -0.1440       -0.2388       
  0.0656       1 (B2g) A     1 (B1u) B   ->    1 (B3g) B     1 (Au) A     
              -0.5568       -0.6677           -0.2388       -0.1440       
  0.0656       1 (B1u) B     1 (B2g) A   ->    1 (Au) A      1 (B3g) B    
              -0.6677       -0.5568           -0.1440       -0.2388       
 -0.0656       1 (B1u) B     1 (B2g) A   ->    1 (B3g) B     1 (Au) A     
              -0.6677       -0.5568           -0.2388       -0.1440       

 Computing CCSD intemediates for later calculations in double precision
 Finished.

Running a double precision version
           CCSD Lambda amplitudes will be solved using DIIS.
           Start     Size      MaxIter   EConv     LConv     
           3         7         100       1.00e-06  1.00e-04  
 ------------------------------------------------------------------------------
            Enorm      Ldiff       Comment
 ------------------------------------------------------------------------------
     1     5.44e-02   4.40e-02     
     2     1.02e-02   2.89e-03     
     3     4.44e-03   1.99e-03     
     4     1.89e-03   9.03e-04     Switched to DIIS steps.
     5     6.59e-04   5.13e-04     
     6     2.48e-04   1.59e-04     
     7     9.69e-05   4.94e-05     
     8     3.28e-05   2.02e-05     
     9     1.10e-05   6.34e-06     
    10     4.12e-06   1.82e-06     
    11     1.23e-06   4.88e-07     
    12     4.86e-07   6.37e-08     
 ------------------------------------------------------------------------------
                                   CCSD Lambda converged.

 CCSD calculation:   CPU 1885.90 s  wall 254.78 s

        Solving for CVS-EOMEE-CCSD B1u transitions.

       EOMEE-CCSD-SINGLES right amplitudes will be solved using Davidson.
        Amplitudes will be solved using shifted  algorithm.
     Hard-coded thresholds: 
     LinDepThresh=1.00e-15  NormThresh=1.00e-06  ReorthogonThresh=1.00e-02

      Roots     MaxVec    MaxIter   Precond   Conv      Shift    
      10        1000      200       1         1.00e-04  1.00e+01  
 ------------------------------------------------------------------------------
      Iter ConvRoots NVecs ResNorm Current eigenvalues (eV)
 ------------------------------------------------------------------------------
      0    0      10    2.57e-02   297.1235   300.5229   301.0071   302.3635   304.4764   306.1762   306.3951   306.5678   307.4278   307.5813   
      1    0      20    5.10e-02   293.2378   296.8944   297.8650   299.2864   304.0801   305.4475   305.7123   305.8322   307.1011   307.2536   
      2    1      30    1.23e-03   290.7158   294.3466   296.1176   297.2665   302.7812   303.8210*  305.0965   305.3502   305.3966   306.8840   
      3    8      39    3.03e-04   290.6959*  294.3401*  296.1050*  297.2575*  302.2917   303.8201*  304.8700   305.0910*  305.3433*  306.8727*  
      4    8      41    1.82e-04   290.6961*  294.3401*  296.1050*  297.2575*  302.2531*  303.8199*  304.7069   305.0910*  305.3433*  306.2982   
      5    9      43    2.72e-05   290.6962*  294.3401*  296.1050*  297.2575*  302.2526*  303.8199*  304.6999*  305.0910*  305.3433*  306.2235   
      6    10     44    1.49e-05   290.6962*  294.3401*  296.1050*  297.2575*  302.2526*  303.8198*  304.6998*  305.0910*  305.3433*  306.2149*  

     Davidson procedure converged

        CVS-EOMEE-CCSD/MP2 right amplitudes will be solved using Davidson.
        Amplitudes will be solved using shifted  algorithm.
     Hard-coded thresholds: 
     LinDepThresh=1.00e-15  NormThresh=1.00e-06  ReorthogonThresh=1.00e-02

      Roots     MaxVec    MaxIter   Precond   Conv      Shift    
      10        1000      200       1         1.00e-04  1.00e+01  
 ------------------------------------------------------------------------------
      Iter ConvRoots NVecs ResNorm Current eigenvalues (eV)
 ------------------------------------------------------------------------------
      0    0      10    1.89e+00   290.6962   294.3401   296.1050   297.2575   302.2526   303.8198   304.6998   305.0910   305.3433   306.2149   
      1    0      20    4.15e+00   288.6815   292.2640   293.8564   294.8997   299.1094   300.7144   301.4832   302.3036   302.5536   303.4586   
      2    0      30    8.04e-02   282.1957   285.9478   286.7720   287.4278   288.3781   289.3993   289.6627   291.7863   292.0720   292.8731   
      3    0      40    1.83e-02   281.7376   285.2750   286.0519   286.7046   287.7330   288.7460   289.0891   291.2998   291.5700   292.3756   
      4    0      50    3.89e-03   281.6844   285.1479   285.8737   286.5288   287.6025   288.6196   289.0168   291.2435   291.4956   292.3122   
      5    0      60    1.91e-03   281.6774   285.1267   285.8181   286.4879   287.5553   288.5762   288.9898   291.2155   291.4556   292.2736   
      6    1      70    6.79e-04   281.6749*  285.1155   285.8029   286.4760   287.5376   288.5647   288.9808   291.1925   291.4289   292.2432   
      7    2      79    4.94e-04   281.6748*  285.1097   285.7939   286.4663   287.5317   288.5594   288.9796*  291.1709   291.4029   292.2191   
      8    7      87    1.52e-04   281.6747*  285.1096*  285.7942*  286.4657*  287.5305*  288.5580*  288.9796*  291.1646   291.3945   292.2106   
      9    7      90    1.19e-04   281.6747*  285.1096*  285.7942*  286.4657*  287.5305*  288.5580*  288.9796*  291.1597   291.3887   292.2054   
      10   8      93    8.58e-05   281.6747*  285.1095*  285.7942*  286.4656*  287.5305*  288.5580*  288.9796*  291.1573*  291.3851   292.2013   
      11   8      95    3.72e-04   281.6747*  285.1094*  285.7942*  286.4656*  287.5305*  288.5580*  288.9796*  291.1573*  291.3835   292.1865   
      12   9      97    3.48e-04   281.6747*  285.1093*  285.7942*  286.4656*  287.5305*  288.5580*  288.9796*  291.1572*  291.3805*  292.1231   
      13   9      98    2.33e-04   281.6747*  285.1093*  285.7942*  286.4656*  287.5305*  288.5580*  288.9796*  291.1572*  291.3805*  292.0883   
      14   9      99    1.57e-04   281.6747*  285.1093*  285.7942*  286.4656*  287.5305*  288.5580*  288.9796*  291.1572*  291.3805*  292.0656   
      15   9      100   1.18e-04   281.6748*  285.1093*  285.7942*  286.4656*  287.5305*  288.5580*  288.9796*  291.1572*  291.3805*  292.0509   
      16   9      101   7.09e-05   281.6748*  285.1093*  285.7942*  286.4656*  287.5305*  288.5580*  288.9796*  291.1571*  291.3805*  292.0429   
      17   9      102   6.03e-05   281.6748*  285.1093*  285.7942*  286.4656*  287.5305*  288.5580*  288.9796*  291.1571*  291.3805*  292.0394   
      18   9      103   5.39e-05   281.6748*  285.1093*  285.7942*  286.4656*  287.5305*  288.5580*  288.9796*  291.1570*  291.3805*  292.0378   
      19   10     104   4.94e-05   281.6748*  285.1093*  285.7942*  286.4656*  287.5305*  288.5580*  288.9796*  291.1570*  291.3805*  292.0365*  

     Davidson procedure converged

 EOMEE transition 1/B1u
 Total energy = -220.94190968 a.u.  Excitation energy = 281.6748 eV.
 R0^2 = 0.0000  R1^2 = 0.8575  R2_CCVV^2 = 0.0018  R2_COVV^2 = 0.0704  Res^2 = 3.22e-05
 Conv-d = yes

 Amplitude    Transitions between orbitals
 -0.8180       1 (B2u) B                 ->    1 (B3g) B                  
  0.2090       1 (B1g) B                 ->    1 (Au) B                   
  0.1603       1 (Ag) B                  ->    3 (B1u) B                  
 -0.1187       1 (B3u) B                 ->    6 (B2g) B                  
  0.1145       1 (B2u) B                 ->    3 (B3g) B                  
 -0.1024       1 (B1g) B                 ->    3 (Au) B                   
  0.1024       1 (B2u) B                 ->    4 (B3g) B                  

              Summary of significant orbitals:

               Number  Type             Irrep      Energy
               1       Occ  Beta        1 (Ag)    -11.4900
               4       Occ  Beta        1 (B1g)    -11.4891
               2       Occ  Beta        1 (B2u)    -11.4899
               3       Occ  Beta        1 (B3u)    -11.4891
               72      Vir  Beta        6 (B2g)      0.1911
               21      Vir  Beta        1 (B3g)     -0.2388
               52      Vir  Beta        3 (B3g)      0.0522
               92      Vir  Beta        4 (B3g)      0.6011
               30      Vir  Beta        1 (Au)     -0.0496
               60      Vir  Beta        3 (Au)      0.1013
               26      Vir  Beta        3 (B1u)     -0.0567


 EOMEE transition 2/B1u
 Total energy = -220.81569317 a.u.  Excitation energy = 285.1093 eV.
 R0^2 = 0.0000  R1^2 = 0.8667  R2_CCVV^2 = 0.0018  R2_COVV^2 = 0.0658  Res^2 = 7.42e-06
 Conv-d = yes

 Amplitude    Transitions between orbitals
 -0.7017       2 (Ag) A                  ->    2 (B1u) A                  
 -0.2416       2 (B3u) A                 ->    6 (B2g) A                  
 -0.2337       2 (B3u) A                 ->    5 (B2g) A                  
 -0.2182       2 (Ag) B                  ->    3 (B1u) B                  
  0.2069       2 (Ag) A                  ->    6 (B1u) A                  
  0.1817       2 (Ag) A                  ->    3 (B1u) A                  
  0.1583       2 (Ag) B                  ->    2 (B1u) B                  
 -0.1485       2 (Ag) A                  ->    8 (B1u) A                  
 -0.1316       2 (Ag) A                  ->    4 (B1u) A                  
  0.1077       2 (B3u) A                 ->    8 (B2g) A                  
 -0.1074       2 (B3u) B                 ->    6 (B2g) B                  

              Summary of significant orbitals:

               Number  Type             Irrep      Energy
               6       Occ  Alpha       2 (Ag)    -11.4421
               5       Occ  Alpha       2 (B3u)    -11.4421
               6       Occ  Beta        2 (Ag)    -11.4490
               5       Occ  Beta        2 (B3u)    -11.4490
               55      Vir  Alpha       5 (B2g)      0.0772
               70      Vir  Alpha       6 (B2g)      0.1658
               96      Vir  Alpha       8 (B2g)      0.6881
               24      Vir  Alpha       2 (B1u)     -0.0782
               27      Vir  Alpha       3 (B1u)     -0.0675
               39      Vir  Alpha       4 (B1u)     -0.0214
               59      Vir  Alpha       6 (B1u)      0.0960
               95      Vir  Alpha       8 (B1u)      0.6439
               72      Vir  Beta        6 (B2g)      0.1911
               24      Vir  Beta        2 (B1u)     -0.0710
               26      Vir  Beta        3 (B1u)     -0.0567


 EOMEE transition 3/B1u
 Total energy = -220.79052458 a.u.  Excitation energy = 285.7942 eV.
 R0^2 = 0.0000  R1^2 = 0.8363  R2_CCVV^2 = 0.0018  R2_COVV^2 = 0.0810  Res^2 = 2.72e-05
 Conv-d = yes

 Amplitude    Transitions between orbitals
 -0.7786       1 (B1g) A                 ->    1 (Au) A                   
 -0.2493       1 (Ag) A                  ->    2 (B1u) A                  
  0.1805       1 (B3u) A                 ->    6 (B2g) A                  
  0.1605       1 (B3u) A                 ->    5 (B2g) A                  
 -0.1551       1 (B2u) B                 ->    1 (B3g) B                  
 -0.1208       1 (B1g) A                 ->    3 (Au) A                   
  0.1034       1 (B1g) A                 ->    4 (Au) A                   

              Summary of significant orbitals:

               Number  Type             Irrep      Energy
               2       Occ  Alpha       1 (Ag)    -11.4980
               4       Occ  Alpha       1 (B1g)    -11.4970
               3       Occ  Alpha       1 (B3u)    -11.4970
               2       Occ  Beta        1 (B2u)    -11.4899
               55      Vir  Alpha       5 (B2g)      0.0772
               70      Vir  Alpha       6 (B2g)      0.1658
               22      Vir  Alpha       1 (Au)     -0.1440
               57      Vir  Alpha       3 (Au)      0.0855
               94      Vir  Alpha       4 (Au)      0.6090
               24      Vir  Alpha       2 (B1u)     -0.0782
               21      Vir  Beta        1 (B3g)     -0.2388


 EOMEE transition 4/B1u
 Total energy = -220.76584983 a.u.  Excitation energy = 286.4656 eV.
 R0^2 = 0.0000  R1^2 = 0.8325  R2_CCVV^2 = 0.0018  R2_COVV^2 = 0.0829  Res^2 = 2.99e-05
 Conv-d = yes

 Amplitude    Transitions between orbitals
 -0.6025       2 (Ag) B                  ->    3 (B1u) B                  
  0.4168       2 (Ag) B                  ->    2 (B1u) B                  
  0.2686       2 (Ag) A                  ->    2 (B1u) A                  
 -0.2347       2 (B3u) B                 ->    6 (B2g) B                  
  0.2207       2 (Ag) B                  ->    6 (B1u) B                  
 -0.1927       2 (Ag) B                  ->    4 (B1u) B                  
 -0.1645       2 (B3u) B                 ->    5 (B2g) B                  
 -0.1145       2 (Ag) B                  ->    8 (B1u) B                  

              Summary of significant orbitals:

               Number  Type             Irrep      Energy
               6       Occ  Alpha       2 (Ag)    -11.4421
               6       Occ  Beta        2 (Ag)    -11.4490
               5       Occ  Beta        2 (B3u)    -11.4490
               24      Vir  Alpha       2 (B1u)     -0.0782
               56      Vir  Beta        5 (B2g)      0.0876
               72      Vir  Beta        6 (B2g)      0.1911
               24      Vir  Beta        2 (B1u)     -0.0710
               26      Vir  Beta        3 (B1u)     -0.0567
               38      Vir  Beta        4 (B1u)     -0.0205
               58      Vir  Beta        6 (B1u)      0.0984
               94      Vir  Beta        8 (B1u)      0.6409


 EOMEE transition 5/B1u
 Total energy = -220.72671665 a.u.  Excitation energy = 287.5305 eV.
 R0^2 = 0.0000  R1^2 = 0.8047  R2_CCVV^2 = 0.0017  R2_COVV^2 = 0.0968  Res^2 = 4.02e-05
 Conv-d = yes

 Amplitude    Transitions between orbitals
  0.6342       1 (B1g) B                 ->    1 (Au) B                   
  0.2917       1 (B2u) B                 ->    1 (B3g) B                  
 -0.2500       1 (B1g) B                 ->    2 (Au) B                   
 -0.2273       1 (B1g) B                 ->    3 (Au) B                   
  0.2144       1 (Ag) B                  ->    3 (B1u) B                  
 -0.2053       1 (B3u) B                 ->    6 (B2g) B                  
 -0.1922       1 (B1g) A                 ->    1 (Au) A                   
 -0.1467       1 (B3u) B                 ->    5 (B2g) B                  
 -0.1148       1 (Ag) B                  ->    2 (B1u) B                  
  0.1126       1 (B1g) B                 ->    4 (Au) B                   

              Summary of significant orbitals:

               Number  Type             Irrep      Energy
               4       Occ  Alpha       1 (B1g)    -11.4970
               1       Occ  Beta        1 (Ag)    -11.4900
               4       Occ  Beta        1 (B1g)    -11.4891
               2       Occ  Beta        1 (B2u)    -11.4899
               3       Occ  Beta        1 (B3u)    -11.4891
               22      Vir  Alpha       1 (Au)     -0.1440
               56      Vir  Beta        5 (B2g)      0.0876
               72      Vir  Beta        6 (B2g)      0.1911
               21      Vir  Beta        1 (B3g)     -0.2388
               30      Vir  Beta        1 (Au)     -0.0496
               39      Vir  Beta        2 (Au)     -0.0189
               60      Vir  Beta        3 (Au)      0.1013
               95      Vir  Beta        4 (Au)      0.6431
               24      Vir  Beta        2 (B1u)     -0.0710
               26      Vir  Beta        3 (B1u)     -0.0567


 EOMEE transition 6/B1u
 Total energy = -220.68895516 a.u.  Excitation energy = 288.5580 eV.
 R0^2 = 0.0000  R1^2 = 0.7591  R2_CCVV^2 = 0.0016  R2_COVV^2 = 0.1196  Res^2 = 7.75e-05
 Conv-d = yes

 Amplitude    Transitions between orbitals
 -0.7599       1 (Ag) A                  ->    2 (B1u) A                  
  0.2849       1 (B1g) A                 ->    1 (Au) A                   
  0.1577       1 (Ag) A                  ->    6 (B1u) A                  
  0.1516       1 (Ag) A                  ->    3 (B1u) A                  
 -0.1239       1 (Ag) A                  ->    4 (B1u) A                  
  0.1060       1 (B3u) A                 ->    5 (B2g) A                  
  0.1025       1 (B3u) A                 ->    6 (B2g) A                  

              Summary of significant orbitals:

               Number  Type             Irrep      Energy
               2       Occ  Alpha       1 (Ag)    -11.4980
               4       Occ  Alpha       1 (B1g)    -11.4970
               3       Occ  Alpha       1 (B3u)    -11.4970
               55      Vir  Alpha       5 (B2g)      0.0772
               70      Vir  Alpha       6 (B2g)      0.1658
               22      Vir  Alpha       1 (Au)     -0.1440
               24      Vir  Alpha       2 (B1u)     -0.0782
               27      Vir  Alpha       3 (B1u)     -0.0675
               39      Vir  Alpha       4 (B1u)     -0.0214
               59      Vir  Alpha       6 (B1u)      0.0960


 EOMEE transition 7/B1u
 Total energy = -220.67346376 a.u.  Excitation energy = 288.9796 eV.
 R0^2 = 0.0000  R1^2 = 0.7714  R2_CCVV^2 = 0.0016  R2_COVV^2 = 0.1135  Res^2 = 5.03e-05
 Conv-d = yes

 Amplitude    Transitions between orbitals
  0.6075       1 (Ag) B                  ->    3 (B1u) B                  
 -0.3974       1 (Ag) B                  ->    2 (B1u) B                  
 -0.3621       1 (B1g) B                 ->    1 (Au) B                   
  0.1703       1 (Ag) B                  ->    4 (B1u) B                  
 -0.1658       1 (Ag) B                  ->    6 (B1u) B                  
  0.1332       1 (B1g) B                 ->    2 (Au) B                   
  0.1007       1 (B1g) B                 ->    3 (Au) B                   

              Summary of significant orbitals:

               Number  Type             Irrep      Energy
               1       Occ  Beta        1 (Ag)    -11.4900
               4       Occ  Beta        1 (B1g)    -11.4891
               30      Vir  Beta        1 (Au)     -0.0496
               39      Vir  Beta        2 (Au)     -0.0189
               60      Vir  Beta        3 (Au)      0.1013
               24      Vir  Beta        2 (B1u)     -0.0710
               26      Vir  Beta        3 (B1u)     -0.0567
               38      Vir  Beta        4 (B1u)     -0.0205
               58      Vir  Beta        6 (B1u)      0.0984


 EOMEE transition 8/B1u
 Total energy = -220.59344634 a.u.  Excitation energy = 291.1569 eV.
 R0^2 = 0.0000  R1^2 = 0.8096  R2_CCVV^2 = 0.0017  R2_COVV^2 = 0.0944  Res^2 = 9.28e-05
 Conv-d = yes

 Amplitude    Transitions between orbitals
  0.6432       2 (Ag) A                  ->    3 (B1u) A                  
  0.4032       2 (Ag) A                  ->    5 (B1u) A                  
  0.2930       2 (Ag) A                  ->    2 (B1u) A                  
  0.2543       2 (B3u) A                 ->    2 (B2g) A                  
  0.2101       2 (B3u) A                 ->    4 (B2g) A                  

              Summary of significant orbitals:

               Number  Type             Irrep      Energy
               6       Occ  Alpha       2 (Ag)    -11.4421
               5       Occ  Alpha       2 (B3u)    -11.4421
               32      Vir  Alpha       2 (B2g)     -0.0454
               51      Vir  Alpha       4 (B2g)      0.0466
               24      Vir  Alpha       2 (B1u)     -0.0782
               27      Vir  Alpha       3 (B1u)     -0.0675
               47      Vir  Alpha       5 (B1u)      0.0247


 EOMEE transition 9/B1u
 Total energy = -220.58523048 a.u.  Excitation energy = 291.3805 eV.
 R0^2 = 0.0000  R1^2 = 0.8048  R2_CCVV^2 = 0.0017  R2_COVV^2 = 0.0968  Res^2 = 6.68e-05
 Conv-d = yes

 Amplitude    Transitions between orbitals
 -0.5486       2 (Ag) B                  ->    2 (B1u) B                  
 -0.4275       2 (Ag) B                  ->    3 (B1u) B                  
 -0.4213       2 (Ag) B                  ->    5 (B1u) B                  
 -0.2584       2 (B3u) B                 ->    2 (B2g) B                  
 -0.2307       2 (B3u) B                 ->    4 (B2g) B                  

              Summary of significant orbitals:

               Number  Type             Irrep      Energy
               6       Occ  Beta        2 (Ag)    -11.4490
               5       Occ  Beta        2 (B3u)    -11.4490
               31      Vir  Beta        2 (B2g)     -0.0455
               50      Vir  Beta        4 (B2g)      0.0471
               24      Vir  Beta        2 (B1u)     -0.0710
               26      Vir  Beta        3 (B1u)     -0.0567
               48      Vir  Beta        5 (B1u)      0.0300


 EOMEE transition 10/B1u
 Total energy = -220.56112452 a.u.  Excitation energy = 292.0365 eV.
 R0^2 = 0.0000  R1^2 = 0.7880  R2_CCVV^2 = 0.0017  R2_COVV^2 = 0.1052  Res^2 = 6.96e-05
 Conv-d = yes

 Amplitude    Transitions between orbitals
  0.6053       2 (B3u) A                 ->    5 (B2g) A                  
  0.4626       2 (B3u) A                 ->    6 (B2g) A                  
 -0.3158       2 (Ag) A                  ->    2 (B1u) A                  
  0.1978       2 (Ag) A                  ->    3 (B1u) A                  
  0.1542       2 (B3u) A                 ->    4 (B2g) A                  

              Summary of significant orbitals:

               Number  Type             Irrep      Energy
               6       Occ  Alpha       2 (Ag)    -11.4421
               5       Occ  Alpha       2 (B3u)    -11.4421
               51      Vir  Alpha       4 (B2g)      0.0466
               55      Vir  Alpha       5 (B2g)      0.0772
               70      Vir  Alpha       6 (B2g)      0.1658
               24      Vir  Alpha       2 (B1u)     -0.0782
               27      Vir  Alpha       3 (B1u)     -0.0675


      CVS-EOM-CCSD/MP2 left amplitudes will be solved using Davidson.
        Amplitudes will be solved using MOM  algorithm.
     Hard-coded thresholds: 
     LinDepThresh=1.00e-15  NormThresh=1.00e-06  ReorthogonThresh=1.00e-02

      Roots     MaxVec    MaxIter   Precond   Conv      Shift    
      10        1000      200       1         1.00e-04  1.00e+01  
 ------------------------------------------------------------------------------
      Iter ConvRoots NVecs ResNorm Current eigenvalues (eV)
 ------------------------------------------------------------------------------
      0    0      10    2.46e-02   281.6748   285.1093   285.7942   286.4656   287.5305   288.5580   288.9796   291.1570   291.3805   292.0365   
      1    0      20    4.28e+00   281.6744   285.1092   285.7937   286.4652   287.5302   288.5570   288.9789   291.1561   291.3803   292.0356   
      2    0      30    5.77e-02   281.6746   285.1092   285.7939   286.4653   287.5304   288.5573   288.9793   291.1565   291.3807   292.0360   
      3    0      40    8.19e-04   281.6745   285.1092   285.7939   286.4652   287.5303   288.5570   288.9792   291.1563   291.3804   292.0358   
      4    0      50    1.20e-03   281.6745   285.1092   285.7940   286.4652   287.5304   288.5570   288.9794   291.1561   291.3805   292.0358   
      5    4      60    1.13e-04   281.6745*  285.1092*  285.7941*  286.4651*  287.5305   288.5569   288.9793   291.1558   291.3804   292.0357   
Found complex roots...
      6    5      66    1.26e-04   281.6745*  285.1092*  285.7941*  286.4651*  287.5305*  288.5569   288.9794   291.1552   291.3803   292.0355   
      7    8      71    1.43e-04   281.6745*  285.1092*  285.7941*  286.4651*  287.5305*  288.5568*  288.9794*  291.1548*  291.3801   292.0354   
      8    8      73    6.33e-05   281.6745*  285.1092*  285.7941*  286.4651*  287.5305*  288.5568*  288.9794*  291.1547*  291.3799   292.0351   
      9    7      75    7.76e-05   281.6745*  285.1092*  285.7941*  286.4651*  287.5305*  288.5568*  288.9794*  291.1547   291.3799   292.0350   
      10   10     78    4.11e-05   281.6745*  285.1092*  285.7941*  286.4651*  287.5305*  288.5568*  288.9794*  291.1546*  291.3799*  292.0349*  

     Davidson procedure converged

 Excited state properties for  CVS-EOMEE-CCSD transition 1/B1u
 Dipole moment (a.u.): 0.000000 (X 0.000000, Y 0.000000, Z 0.000000)
 R-squared (a.u.): 442.788146 (XX 214.976595, YY 200.024481, ZZ 27.787071)

State OPDM analysis using libwa module will be excecuted
Created directory /work1/malop/qc_7495364.hnode2/plots
 NOs (alpha)
   Occupation of frontier NOs:
      0.0085   0.0094   0.0100   0.0282   0.9767   0.9895   0.9897   0.9903
   Number of electrons: 21.000000
 NOs (beta)
   Occupation of frontier NOs:
      0.0236   0.0447   0.0804   0.2964   0.8057   0.8932   0.8962   0.9325
   Number of electrons: 20.000000
 NOs (spin-traced)
   Occupation of frontier NOs:
      0.0141   0.0450   0.0806   0.1081   1.2940   1.7821   1.8837   1.8927
   Number of electrons: 41.000000
   Number of unpaired electrons: n_u =  1.71092, n_u,nl =  1.17852
   NO participation ratio (PR_NO):  4.885153
 
 Mulliken Population Analysis
 Atom      Charge (e)        Spin (e)
 ------------------------------------
  1 H        0.291266        0.021189
  2 C       -0.108816       -0.394669
  3 C       -0.108816       -0.394669
  4 H        0.291266        0.021189
  5 C       -0.134065        0.257606
  6 H        0.269164       -0.010647
  7 C       -0.108816       -0.394669
  8 H        0.291266        0.021189
  9 C       -0.108816       -0.394669
 10 H        0.291266        0.021189
 11 C       -0.134065        0.257606
 12 H        0.269164       -0.010647
 ------------------------------------
 Sum:        1.000000       -1.000000
 

 Excited state properties for  CVS-EOMEE-CCSD transition 2/B1u
 Dipole moment (a.u.): 0.000000 (X 0.000000, Y 0.000000, Z 0.000000)
 R-squared (a.u.): 443.637555 (XX 214.523022, YY 201.381505, ZZ 27.733028)

State OPDM analysis using libwa module will be excecuted
 NOs (alpha)
   Occupation of frontier NOs:
      0.0045   0.0061   0.1524   0.3347   0.7144   0.7915   0.9929   0.9944
   Number of electrons: 21.000000
 NOs (beta)
   Occupation of frontier NOs:
      0.0057   0.0169   0.0807   0.9056   0.9671   0.9937   0.9939   0.9947
   Number of electrons: 20.000000
 NOs (spin-traced)
   Occupation of frontier NOs:
      0.0125   0.1772   0.8092   0.9991   1.2403   1.7585   1.9768   1.9878
   Number of electrons: 41.000000
   Number of unpaired electrons: n_u =  3.17398, n_u,nl =  3.10862
   NO participation ratio (PR_NO):  4.339151
 
 Mulliken Population Analysis
 Atom      Charge (e)        Spin (e)
 ------------------------------------
  1 H        0.284112        0.028452
  2 C       -0.060291       -0.487349
  3 C       -0.060291       -0.487349
  4 H        0.284112        0.028452
  5 C       -0.235814        0.420649
  6 H        0.288172       -0.002857
  7 C       -0.060291       -0.487349
  8 H        0.284112        0.028452
  9 C       -0.060291       -0.487349
 10 H        0.284112        0.028452
 11 C       -0.235814        0.420649
 12 H        0.288172       -0.002857
 ------------------------------------
 Sum:        1.000000       -1.000000
 

 Excited state properties for  CVS-EOMEE-CCSD transition 3/B1u
 Dipole moment (a.u.): 0.000000 (X 0.000000, Y 0.000000, Z 0.000000)
 R-squared (a.u.): 443.707980 (XX 215.899885, YY 200.017819, ZZ 27.790276)

State OPDM analysis using libwa module will be excecuted
 NOs (alpha)
   Occupation of frontier NOs:
      0.0108   0.0833   0.0889   0.3490   0.7580   0.8829   0.8850   0.9468
   Number of electrons: 21.000000
 NOs (beta)
   Occupation of frontier NOs:
      0.0098   0.0098   0.0274   0.0521   0.9711   0.9807   0.9872   0.9883
   Number of electrons: 20.000000
 NOs (spin-traced)
   Occupation of frontier NOs:
      0.0173   0.0986   0.1032   0.7844   1.0397   1.3296   1.8741   1.8770
   Number of electrons: 41.000000
   Number of unpaired electrons: n_u =  3.26070, n_u,nl =  2.92628
   NO participation ratio (PR_NO):  5.187431
 
 Mulliken Population Analysis
 Atom      Charge (e)        Spin (e)
 ------------------------------------
  1 H        0.294600        0.029738
  2 C       -0.097704       -0.362196
  3 C       -0.097704       -0.362196
  4 H        0.294600        0.029738
  5 C       -0.160029        0.172751
  6 H        0.266237       -0.007834
  7 C       -0.097704       -0.362196
  8 H        0.294600        0.029738
  9 C       -0.097704       -0.362196
 10 H        0.294600        0.029738
 11 C       -0.160029        0.172751
 12 H        0.266237       -0.007834
 ------------------------------------
 Sum:        1.000000       -1.000000
 

 Excited state properties for  CVS-EOMEE-CCSD transition 4/B1u
 Dipole moment (a.u.): 0.000000 (X 0.000000, Y 0.000000, Z 0.000000)
 R-squared (a.u.): 444.135932 (XX 214.215427, YY 201.953705, ZZ 27.966800)

State OPDM analysis using libwa module will be excecuted
 NOs (alpha)
   Occupation of frontier NOs:
      0.0066   0.0068   0.0216   0.1367   0.8994   0.9703   0.9724   0.9903
   Number of electrons: 21.000000
 NOs (beta)
   Occupation of frontier NOs:
      0.0055   0.0109   0.1007   0.3090   0.7460   0.8182   0.9947   0.9950
   Number of electrons: 20.000000
 NOs (spin-traced)
   Occupation of frontier NOs:
      0.0109   0.0114   0.1287   0.8904   1.0008   1.2084   1.7905   1.9643
   Number of electrons: 41.000000
   Number of unpaired electrons: n_u =  3.24327, n_u,nl =  3.10163
   NO participation ratio (PR_NO):  4.239219
 
 Mulliken Population Analysis
 Atom      Charge (e)        Spin (e)
 ------------------------------------
  1 H        0.283641        0.020836
  2 C       -0.082164       -0.256146
  3 C       -0.082164       -0.256146
  4 H        0.283641        0.020836
  5 C       -0.190899       -0.018767
  6 H        0.287945       -0.010613
  7 C       -0.082164       -0.256146
  8 H        0.283641        0.020836
  9 C       -0.082164       -0.256146
 10 H        0.283641        0.020836
 11 C       -0.190899       -0.018767
 12 H        0.287945       -0.010613
 ------------------------------------
 Sum:        1.000000       -1.000000
 

 Excited state properties for  CVS-EOMEE-CCSD transition 5/B1u
 Dipole moment (a.u.): 0.000000 (X 0.000000, Y 0.000000, Z 0.000000)
 R-squared (a.u.): 444.358320 (XX 216.027060, YY 200.307481, ZZ 28.023779)

State OPDM analysis using libwa module will be excecuted
 NOs (alpha)
   Occupation of frontier NOs:
      0.0110   0.0111   0.0132   0.0801   0.9526   0.9616   0.9868   0.9871
   Number of electrons: 21.000000
 NOs (beta)
   Occupation of frontier NOs:
      0.0797   0.0892   0.1474   0.4472   0.6194   0.8551   0.8665   0.8812
   Number of electrons: 20.000000
 NOs (spin-traced)
   Occupation of frontier NOs:
      0.0183   0.1034   0.1268   0.6982   1.0955   1.4088   1.8514   1.8622
   Number of electrons: 41.000000
   Number of unpaired electrons: n_u =  3.16502, n_u,nl =  2.81309
   NO participation ratio (PR_NO):  5.744950
 
 Mulliken Population Analysis
 Atom      Charge (e)        Spin (e)
 ------------------------------------
  1 H        0.293550        0.019425
  2 C       -0.097527       -0.419428
  3 C       -0.097527       -0.419428
  4 H        0.293550        0.019425
  5 C       -0.159243        0.310950
  6 H        0.267197       -0.010945
  7 C       -0.097527       -0.419428
  8 H        0.293550        0.019425
  9 C       -0.097527       -0.419428
 10 H        0.293550        0.019425
 11 C       -0.159243        0.310950
 12 H        0.267197       -0.010945
 ------------------------------------
 Sum:        1.000000       -1.000000
 

 Excited state properties for  CVS-EOMEE-CCSD transition 6/B1u
 Dipole moment (a.u.): 0.000000 (X 0.000000, Y 0.000000, Z 0.000000)
 R-squared (a.u.): 445.127949 (XX 218.078155, YY 198.920616, ZZ 28.129178)

State OPDM analysis using libwa module will be excecuted
 NOs (alpha)
   Occupation of frontier NOs:
      0.0063   0.0461   0.1288   0.3202   0.8182   0.8497   0.9211   0.9256
   Number of electrons: 21.000000
 NOs (beta)
   Occupation of frontier NOs:
      0.0095   0.0096   0.0309   0.0436   0.9546   0.9656   0.9884   0.9895
   Number of electrons: 20.000000
 NOs (spin-traced)
   Occupation of frontier NOs:
      0.0158   0.0584   0.1557   0.8312   1.0220   1.3104   1.8470   1.9184
   Number of electrons: 41.000000
   Number of unpaired electrons: n_u =  3.39483, n_u,nl =  3.01489
   NO participation ratio (PR_NO):  5.249244
 
 Mulliken Population Analysis
 Atom      Charge (e)        Spin (e)
 ------------------------------------
  1 H        0.294615        0.023508
  2 C       -0.013323       -0.198913
  3 C       -0.013323       -0.198913
  4 H        0.294615        0.023508
  5 C       -0.328527       -0.155161
  6 H        0.265942        0.005971
  7 C       -0.013323       -0.198913
  8 H        0.294615        0.023508
  9 C       -0.013323       -0.198913
 10 H        0.294615        0.023508
 11 C       -0.328527       -0.155161
 12 H        0.265942        0.005971
 ------------------------------------
 Sum:        1.000000       -1.000000
 

 Excited state properties for  CVS-EOMEE-CCSD transition 7/B1u
 Dipole moment (a.u.): 0.000000 (X 0.000000, Y 0.000000, Z 0.000000)
 R-squared (a.u.): 445.410107 (XX 217.278053, YY 199.816965, ZZ 28.315089)

State OPDM analysis using libwa module will be excecuted
 NOs (alpha)
   Occupation of frontier NOs:
      0.0107   0.0124   0.0153   0.0420   0.9651   0.9744   0.9853   0.9869
   Number of electrons: 21.000000
 NOs (beta)
   Occupation of frontier NOs:
      0.0098   0.0491   0.1905   0.3437   0.7604   0.8001   0.9253   0.9425
   Number of electrons: 20.000000
 NOs (spin-traced)
   Occupation of frontier NOs:
      0.0174   0.0363   0.2273   0.7751   1.0137   1.3378   1.7968   1.9234
   Number of electrons: 41.000000
   Number of unpaired electrons: n_u =  3.40361, n_u,nl =  3.05271
   NO participation ratio (PR_NO):  5.454152
 
 Mulliken Population Analysis
 Atom      Charge (e)        Spin (e)
 ------------------------------------
  1 H        0.293132        0.023244
  2 C       -0.051577       -0.498657
  3 C       -0.051577       -0.498657
  4 H        0.293132        0.023244
  5 C       -0.252359        0.471659
  6 H        0.269250       -0.020834
  7 C       -0.051577       -0.498657
  8 H        0.293132        0.023244
  9 C       -0.051577       -0.498657
 10 H        0.293132        0.023244
 11 C       -0.252359        0.471659
 12 H        0.269250       -0.020834
 ------------------------------------
 Sum:        1.000000       -1.000000
 

 Excited state properties for  CVS-EOMEE-CCSD transition 8/B1u
 Dipole moment (a.u.): 0.000000 (X 0.000000, Y 0.000000, Z 0.000000)
 R-squared (a.u.): 479.405933 (XX 222.223747, YY 205.288346, ZZ 51.893840)

State OPDM analysis using libwa module will be excecuted
 NOs (alpha)
   Occupation of frontier NOs:
      0.0048   0.0219   0.1490   0.2432   0.7726   0.8385   0.9748   0.9941
   Number of electrons: 21.000000
 NOs (beta)
   Occupation of frontier NOs:
      0.0071   0.0080   0.0139   0.9894   0.9925   0.9926   0.9928   0.9930
   Number of electrons: 20.000000
 NOs (spin-traced)
   Occupation of frontier NOs:
      0.0120   0.0413   0.1537   0.8456   0.9983   1.2327   1.7663   1.9547
   Number of electrons: 41.000000
   Number of unpaired electrons: n_u =  3.25619, n_u,nl =  3.11952
   NO participation ratio (PR_NO):  4.447542
 
 Mulliken Population Analysis
 Atom      Charge (e)        Spin (e)
 ------------------------------------
  1 H        0.307889        0.025014
  2 C       -0.021581       -0.477502
  3 C       -0.021581       -0.477502
  4 H        0.307889        0.025014
  5 C       -0.378073        0.418909
  6 H        0.305457       -0.013934
  7 C       -0.021581       -0.477502
  8 H        0.307889        0.025014
  9 C       -0.021581       -0.477502
 10 H        0.307889        0.025014
 11 C       -0.378073        0.418909
 12 H        0.305457       -0.013934
 ------------------------------------
 Sum:        1.000000       -1.000000
 

 Excited state properties for  CVS-EOMEE-CCSD transition 9/B1u
 Dipole moment (a.u.): 0.000000 (X 0.000000, Y 0.000000, Z 0.000000)
 R-squared (a.u.): 481.235489 (XX 223.029551, YY 205.300836, ZZ 52.905101)

State OPDM analysis using libwa module will be excecuted
 NOs (alpha)
   Occupation of frontier NOs:
      0.0076   0.0100   0.0108   0.0366   0.9652   0.9861   0.9918   0.9918
   Number of electrons: 21.000000
 NOs (beta)
   Occupation of frontier NOs:
      0.0071   0.1478   0.2486   0.7718   0.8418   0.9947   0.9947   0.9956
   Number of electrons: 20.000000
 NOs (spin-traced)
   Occupation of frontier NOs:
      0.0118   0.0372   0.1503   0.8522   0.9981   1.2348   1.7645   1.9559
   Number of electrons: 41.000000
   Number of unpaired electrons: n_u =  3.24337, n_u,nl =  3.11840
   NO participation ratio (PR_NO):  4.399748
 
 Mulliken Population Analysis
 Atom      Charge (e)        Spin (e)
 ------------------------------------
  1 H        0.308247        0.023744
  2 C       -0.021250       -0.327933
  3 C       -0.021250       -0.327933
  4 H        0.308247        0.023744
  5 C       -0.381178        0.110784
  6 H        0.307184       -0.002406
  7 C       -0.021250       -0.327933
  8 H        0.308247        0.023744
  9 C       -0.021250       -0.327933
 10 H        0.308247        0.023744
 11 C       -0.381178        0.110784
 12 H        0.307184       -0.002406
 ------------------------------------
 Sum:        1.000000       -1.000000
 

 Excited state properties for  CVS-EOMEE-CCSD transition 10/B1u
 Dipole moment (a.u.): 0.000000 (X 0.000000, Y 0.000000, Z 0.000000)
 R-squared (a.u.): 449.920215 (XX 215.482824, YY 204.247120, ZZ 30.190272)

State OPDM analysis using libwa module will be excecuted
 NOs (alpha)
   Occupation of frontier NOs:
      0.0128   0.0187   0.2151   0.2823   0.7419   0.7519   0.9793   0.9923
   Number of electrons: 21.000000
 NOs (beta)
   Occupation of frontier NOs:
      0.0083   0.0088   0.0117   0.0236   0.9755   0.9843   0.9901   0.9906
   Number of electrons: 20.000000
 NOs (spin-traced)
   Occupation of frontier NOs:
      0.0157   0.0385   0.2369   0.7403   1.0012   1.2747   1.7264   1.9538
   Number of electrons: 41.000000
   Number of unpaired electrons: n_u =  3.29834, n_u,nl =  3.14617
   NO participation ratio (PR_NO):  4.925152
 
 Mulliken Population Analysis
 Atom      Charge (e)        Spin (e)
 ------------------------------------
  1 H        0.290729        0.032134
  2 C       -0.122084       -0.564437
  3 C       -0.122084       -0.564437
  4 H        0.290729        0.032134
  5 C       -0.123171        0.567623
  6 H        0.285881       -0.003019
  7 C       -0.122084       -0.564437
  8 H        0.290729        0.032134
  9 C       -0.122084       -0.564437
 10 H        0.290729        0.032134
 11 C       -0.123171        0.567623
 12 H        0.285881       -0.003019
 ------------------------------------
 Sum:        1.000000       -1.000000
 

        Solving for CVS-EOMEE-CCSD B2u transitions.

       EOMEE-CCSD-SINGLES right amplitudes will be solved using Davidson.
        Amplitudes will be solved using shifted  algorithm.
     Hard-coded thresholds: 
     LinDepThresh=1.00e-15  NormThresh=1.00e-06  ReorthogonThresh=1.00e-02

      Roots     MaxVec    MaxIter   Precond   Conv      Shift    
      10        1000      200       1         1.00e-04  1.00e+01  
 ------------------------------------------------------------------------------
      Iter ConvRoots NVecs ResNorm Current eigenvalues (eV)
 ------------------------------------------------------------------------------
      0    0      10    2.33e-03   306.0058   306.0552   306.3857   306.5241   307.1231   307.3995   307.5059   307.5825   308.1540   308.3079   
      1    0      20    2.80e-01   305.5324   305.5638   305.8842   306.3396   306.4496   306.7282   307.0983   307.1358   307.7792   308.0390   
      2    0      30    5.24e-02   302.1551   303.8361   304.8331   305.4188   305.6902   305.9025   306.2504   306.5965   306.7960   307.6328   
      3    0      40    7.88e-02   301.0650   302.8291   303.5378   305.2179   305.2456   305.4885   305.9807   306.4419   306.4671   306.5997   
      4    0      50    1.71e-01   300.9075   302.5933   303.3160   304.4524   305.0461   305.4815   305.7163   305.7402   306.1949   306.4353   
      5    0      60    6.34e-02   300.8966   302.5642   303.2970   303.4947   305.0148   305.4811   305.5232   305.7043   305.7064   306.4341   
      6    0      70    6.78e-01   300.8951   302.5571   303.1670   303.2994   305.0135   305.4061   305.4371   305.4812   305.7029   306.1968   
      7    2      80    1.06e-01   300.8948*  302.5551   302.9368   303.2982   304.7039   305.0117   305.2020   305.4812*  305.6736   305.7071   
Rerun orthogonalization...
      8    4      88    6.16e-03   300.8948*  302.5550*  302.9249   303.2982*  304.6586   305.0106   305.1455   305.4812*  305.6229   305.7045   
      9    6      94    4.03e-04   300.8948*  302.5550*  302.9244   303.2982*  304.6561   305.0105*  305.1423   305.4812*  305.6196   305.7045*  
      10   9      98    2.73e-05   300.8948*  302.5550*  302.9244*  303.2982*  304.6560*  305.0105*  305.1422*  305.4812*  305.6194   305.7045*  
      11   10     99    5.08e-06   300.8948*  302.5550*  302.9244*  303.2982*  304.6560*  305.0105*  305.1422*  305.4812*  305.6194*  305.7045*  

     Davidson procedure converged

        CVS-EOMEE-CCSD/MP2 right amplitudes will be solved using Davidson.
        Amplitudes will be solved using shifted  algorithm.
     Hard-coded thresholds: 
     LinDepThresh=1.00e-15  NormThresh=1.00e-06  ReorthogonThresh=1.00e-02

      Roots     MaxVec    MaxIter   Precond   Conv      Shift    
      10        1000      200       1         1.00e-04  1.00e+01  
 ------------------------------------------------------------------------------
      Iter ConvRoots NVecs ResNorm Current eigenvalues (eV)
 ------------------------------------------------------------------------------
      0    0      10    1.81e+00   300.8948   302.5550   302.9244   303.2982   304.6560   305.0105   305.1422   305.4812   305.6194   305.7045   
      1    0      20    1.78e+01   298.8239   300.3598   300.9838   301.3542   302.5565   302.5822   302.7563   302.8571   303.0496   303.2519   
      2    0      30    3.52e-01   291.3068   291.6191   291.6496   291.8810   292.8567   293.6141   294.3297   294.7848   294.8995   295.1183   
      3    0      40    6.72e-02   290.5884   291.0249   291.1642   291.4093   292.1825   292.7840   293.4296   293.8721   294.0424   294.2133   
      4    0      50    5.15e-02   290.3765   290.8675   291.1296   291.3643   291.9998   292.4772   292.9866   293.4311   293.6386   293.8113   
      5    0      60    1.89e-02   290.2750   290.7920   291.1107   291.3371   291.8928   292.2746   292.5884   293.1055   293.3008   293.4824   
      6    0      70    2.67e-02   290.2268   290.7548   291.0875   291.3109   291.8237   292.1427   292.2814   292.8618   293.0462   293.2086   
      7    0      80    1.36e-02   290.1966   290.7309   291.0693   291.2865   291.7589   291.9993   292.0263   292.5338   292.7640   292.9386   
      8    0      90    9.90e-03   290.1867   290.7236   291.0645   291.2796   291.7256   291.8953   291.9305   292.2872   292.5499   292.7917   
      9    0      100   6.13e-03   290.1817   290.7199   291.0600   291.2740   291.6958   291.8251   291.8898   292.1552   292.4454   292.7208   
Found complex roots...
      10   1      110   2.46e-03   290.1774   290.7169   291.0572*  291.2695   291.6664   291.7787   291.8622   292.0697   292.3612   292.6763   
      11   1      119   2.66e-03   290.1763   290.7158*  291.0567   291.2674   291.6449   291.7524   291.8455   292.0274   292.3127   292.6363   
      12   4      128   9.55e-04   290.1759*  290.7154*  291.0562*  291.2663*  291.6292   291.7419   291.8349   292.0121   292.2819   292.5973   
      13   4      134   1.00e-03   290.1754*  290.7153*  291.0559*  291.2656*  291.6183   291.7319   291.8281   291.9976   292.2597   292.5653   
      14   4      140   3.51e-04   290.1753*  290.7152*  291.0559*  291.2657*  291.6160   291.7294   291.8260   291.9940   292.2497   292.5448   
      15   4      146   3.63e-04   290.1752*  290.7151*  291.0559*  291.2656*  291.6122   291.7275   291.8235   291.9910   292.2408   292.5257   
      16   7      152   2.68e-04   290.1753*  290.7151*  291.0559*  291.2656*  291.6108   291.7266*  291.8227*  291.9898*  292.2347   292.5126   
      17   8      155   2.75e-04   290.1753*  290.7151*  291.0559*  291.2656*  291.6111*  291.7267*  291.8226*  291.9898*  292.2314   292.4931   
      18   8      157   3.36e-04   290.1752*  290.7151*  291.0559*  291.2656*  291.6104*  291.7266*  291.8222*  291.9898*  292.2257   292.4754   
      19   8      159   5.71e-04   290.1752*  290.7150*  291.0559*  291.2656*  291.6105*  291.7267*  291.8221*  291.9898*  292.2226   292.4313   
      20   8      161   7.27e-04   290.1752*  290.7151*  291.0559*  291.2656*  291.6105*  291.7267*  291.8221*  291.9898*  292.2204   292.3759   
      21   8      163   4.84e-04   290.1752*  290.7150*  291.0559*  291.2656*  291.6103*  291.7267*  291.8220*  291.9897*  292.2178   292.3114   
      22   8      165   3.10e-04   290.1752*  290.7150*  291.0559*  291.2656*  291.6104*  291.7267*  291.8221*  291.9897*  292.2166   292.2745   
      23   8      167   2.01e-04   290.1752*  290.7150*  291.0559*  291.2656*  291.6103*  291.7267*  291.8220*  291.9897*  292.2152   292.2575   
      24   8      169   1.80e-04   290.1752*  290.7150*  291.0559*  291.2656*  291.6103*  291.7267*  291.8221*  291.9897*  292.2108   292.2373   
      25   8      171   1.46e-04   290.1752*  290.7150*  291.0559*  291.2656*  291.6103*  291.7267*  291.8220*  291.9896*  292.2083   292.2326   
      26   8      173   1.39e-04   290.1752*  290.7150*  291.0559*  291.2656*  291.6102*  291.7267*  291.8220*  291.9897*  292.1981   292.2263   
      27   8      175   1.39e-04   290.1752*  290.7150*  291.0559*  291.2656*  291.6101*  291.7267*  291.8219*  291.9895*  292.1885   292.2247   
      28   9      177   1.22e-04   290.1752*  290.7150*  291.0559*  291.2656*  291.6100*  291.7267*  291.8218*  291.9897*  292.1799   292.2233*  
Found complex roots...
      29   9      178   8.88e-05   290.1752*  290.7150*  291.0559*  291.2656*  291.6099*  291.7267*  291.8219*  291.9895*  292.1711   292.2228*  
      30   9      179   5.64e-05   290.1752*  290.7150*  291.0559*  291.2656*  291.6100*  291.7267*  291.8218*  291.9896*  292.1670   292.2224*  
      31   9      180   3.78e-05   290.1752*  290.7150*  291.0559*  291.2656*  291.6100*  291.7267*  291.8218*  291.9896*  292.1651   292.2223*  
      32   9      181   3.35e-05   290.1752*  290.7150*  291.0559*  291.2656*  291.6100*  291.7267*  291.8217*  291.9896*  292.1639   292.2223*  
      33   9      182   5.32e-05   290.1752*  290.7150*  291.0559*  291.2656*  291.6100*  291.7267*  291.8218*  291.9896*  292.1627   292.2222*  
      34   8      183   2.61e+00   258.5328   290.1752*  290.7150*  291.0559*  291.2656*  291.6100*  291.7267*  291.8218*  291.9896*  292.1635   
      35   10     185   2.71e-05   290.1752*  290.7150*  291.0559*  291.2656*  291.6100*  291.7267*  291.8218*  291.9896*  292.1633*  292.2223*  

     Davidson procedure converged

 EOMEE transition 1/B2u
 Total energy = -220.62952636 a.u.  Excitation energy = 290.1752 eV.
 R0^2 = 0.0000  R1^2 = 0.8228  R2_CCVV^2 = 0.0016  R2_COVV^2 = 0.0878  Res^2 = 3.84e-06
 Conv-d = yes

 Amplitude    Transitions between orbitals
  0.4240       1 (B2u) B                 ->    7 (Ag) B                    
 -0.2568       1 (B2u) B                 ->    10 (Ag) B                   
  0.2523       1 (Ag) B                  ->    5 (B2u) B                   
  0.2506       1 (B2u) A                 ->    7 (Ag) A                    
  0.1964       1 (B2u) B                 ->    15 (Ag) B                   
 -0.1592       1 (B2u) A                 ->    10 (Ag) A                   
  0.1579       1 (Ag) A                  ->    5 (B2u) A                   
 -0.1545       1 (B1g) B                 ->    6 (B3u) B                   
 -0.1482       1 (Ag) B                  ->    8 (B2u) B                   
  0.1398       1 (Ag) B                  ->    11 (B2u) B                  
  0.1281       1 (B2u) A                 ->    15 (Ag) A                   
 -0.1256       1 (B3u) B                 ->    4 (B1g) B                   
 -0.1103       1 (Ag) B                  ->    7 (B2u) B                   
 -0.1036       1 (B3u) B                 ->    6 (B1g) B                   

              Summary of significant orbitals:

               Number  Type             Irrep      Energy
               2       Occ  Alpha       1 (Ag)    -11.4980
               1       Occ  Alpha       1 (B2u)    -11.4980
               1       Occ  Beta        1 (Ag)    -11.4900
               4       Occ  Beta        1 (B1g)    -11.4891
               2       Occ  Beta        1 (B2u)    -11.4899
               3       Occ  Beta        1 (B3u)    -11.4891
               23      Vir  Alpha       7 (Ag)     -0.0892
               36      Vir  Alpha      10 (Ag)     -0.0242
               60      Vir  Alpha      15 (Ag)      0.0978
               25      Vir  Alpha       5 (B2u)     -0.0730
               22      Vir  Beta        7 (Ag)     -0.0886
               36      Vir  Beta       10 (Ag)     -0.0238
               59      Vir  Beta       15 (Ag)      0.0991
               28      Vir  Beta        4 (B1g)     -0.0519
               45      Vir  Beta        6 (B1g)      0.0033
               23      Vir  Beta        5 (B2u)     -0.0724
               35      Vir  Beta        7 (B2u)     -0.0248
               40      Vir  Beta        8 (B2u)     -0.0087
               61      Vir  Beta       11 (B2u)      0.1094
               25      Vir  Beta        6 (B3u)     -0.0698


 EOMEE transition 2/B2u
 Total energy = -220.60968876 a.u.  Excitation energy = 290.7150 eV.
 R0^2 = 0.0000  R1^2 = 0.8080  R2_CCVV^2 = 0.0017  R2_COVV^2 = 0.0951  Res^2 = 1.89e-05
 Conv-d = yes

 Amplitude    Transitions between orbitals
  0.4704       1 (B2u) A                 ->    7 (Ag) A                    
 -0.3418       1 (B2u) B                 ->    7 (Ag) B                    
 -0.2616       1 (B2u) A                 ->    10 (Ag) A                   
  0.2484       1 (Ag) A                  ->    5 (B2u) A                   
  0.1871       1 (B2u) A                 ->    15 (Ag) A                   
  0.1753       1 (B2u) B                 ->    10 (Ag) B                   
 -0.1605       1 (Ag) B                  ->    5 (B2u) B                   
 -0.1596       1 (B1g) A                 ->    6 (B3u) A                   
 -0.1360       1 (Ag) A                  ->    8 (B2u) A                   
  0.1287       1 (Ag) A                  ->    11 (B2u) A                  
 -0.1162       1 (B2u) B                 ->    15 (Ag) B                   
 -0.1103       1 (B3u) A                 ->    4 (B1g) A                   
  0.1051       1 (B1g) B                 ->    6 (B3u) B                   
 -0.1037       1 (Ag) A                  ->    7 (B2u) A                   

              Summary of significant orbitals:

               Number  Type             Irrep      Energy
               2       Occ  Alpha       1 (Ag)    -11.4980
               4       Occ  Alpha       1 (B1g)    -11.4970
               1       Occ  Alpha       1 (B2u)    -11.4980
               3       Occ  Alpha       1 (B3u)    -11.4970
               1       Occ  Beta        1 (Ag)    -11.4900
               4       Occ  Beta        1 (B1g)    -11.4891
               2       Occ  Beta        1 (B2u)    -11.4899
               23      Vir  Alpha       7 (Ag)     -0.0892
               36      Vir  Alpha      10 (Ag)     -0.0242
               60      Vir  Alpha      15 (Ag)      0.0978
               29      Vir  Alpha       4 (B1g)     -0.0523
               25      Vir  Alpha       5 (B2u)     -0.0730
               35      Vir  Alpha       7 (B2u)     -0.0254
               40      Vir  Alpha       8 (B2u)     -0.0091
               61      Vir  Alpha      11 (B2u)      0.1065
               26      Vir  Alpha       6 (B3u)     -0.0697
               22      Vir  Beta        7 (Ag)     -0.0886
               36      Vir  Beta       10 (Ag)     -0.0238
               59      Vir  Beta       15 (Ag)      0.0991
               23      Vir  Beta        5 (B2u)     -0.0724
               25      Vir  Beta        6 (B3u)     -0.0698


 EOMEE transition 3/B2u
 Total energy = -220.59715941 a.u.  Excitation energy = 291.0559 eV.
 R0^2 = 0.0000  R1^2 = 0.8056  R2_CCVV^2 = 0.0017  R2_COVV^2 = 0.0964  Res^2 = 2.21e-05
 Conv-d = yes

 Amplitude    Transitions between orbitals
  0.6485       2 (Ag) A                  ->    5 (B2u) A                   
  0.3526       2 (B3u) A                 ->    4 (B1g) A                   
 -0.2287       2 (Ag) A                  ->    7 (B2u) A                   
 -0.2157       2 (Ag) A                  ->    8 (B2u) A                   
  0.1944       2 (B3u) A                 ->    5 (B1g) A                   
  0.1820       2 (B3u) A                 ->    6 (B1g) A                   
[...]
 NTOs (beta)
   Leading SVs and ENEs:
        0.6097   0.0857   0.0331   0.0298   0.0079   0.0017   0.0000   0.0000
 E(h) -11.4968 -11.4970 -11.4979 -11.4980 -11.4423 -11.4422  16.7133  31.4959
 E(e)  -0.0372   0.0263   0.1034   0.0939  -0.0303   0.0322  -0.7471  -1.3851
 
   Sum of SVs (Omega):               0.767965
   Participation ratio (PR_NTO):     1.547221
   Entanglement entropy (S_HE):      1.123715
   Nr of entangled states (Z_HE):    2.179074
   Renormalized S_HE/Z_HE:  1.082350 /  2.117482
 
 Atomic CT numbers
   omega =     0.8037 (alpha:     0.0357, beta:     0.7680)
 
 Exciton analysis of the transition density matrix
 Total:
   <r_h> [Ang]:                        [  0.000000,  -0.000000,   0.000000]
   <r_e> [Ang]:                        [ -0.000000,  -0.000000,  -0.000000]
   |<r_e - r_h>| [Ang]:                  0.000000
   Hole size [Ang]:                      1.402283
     Cartesian components [Ang]:       [  0.747446,   1.182636,   0.095360]
   Electron size [Ang]:                  3.146376
     Cartesian components [Ang]:       [  1.479259,   1.717006,   2.182514]
   RMS electron-hole separation [Ang]:   3.252142
     Cartesian components [Ang]:       [  1.502169,   1.883469,   2.184596]
   Covariance(r_h, r_e) [Ang^2]:         0.644827
   Correlation coefficient:              0.146149
   Center-of-mass size [Ang]:            1.813542
     Cartesian components [Ang]:       [  0.899619,   1.134242,   1.092298]
 
 Alpha spin:
   <r_h> [Ang]:                        [  0.000000,  -0.000000,   0.000000]
   <r_e> [Ang]:                        [  0.000000,  -0.000000,  -0.000000]
   |<r_e - r_h>| [Ang]:                  0.000000
   Hole size [Ang]:                      1.403053
     Cartesian components [Ang]:       [  0.765214,   1.172131,   0.095475]
   Electron size [Ang]:                  3.121603
     Cartesian components [Ang]:       [  1.581355,   1.553480,   2.197822]
   RMS electron-hole separation [Ang]:   3.358557
     Cartesian components [Ang]:       [  1.716114,   1.869577,   2.199895]
   Covariance(r_h, r_e) [Ang^2]:         0.216531
   Correlation coefficient:              0.049439
   Center-of-mass size [Ang]:            1.742557
     Cartesian components [Ang]:       [  0.898252,   1.009834,   1.099948]
 
 Beta spin:
   <r_h> [Ang]:                        [  0.000000,  -0.000000,   0.000000]
   <r_e> [Ang]:                        [ -0.000000,  -0.000000,  -0.000000]
   |<r_e - r_h>| [Ang]:                  0.000000
   Hole size [Ang]:                      1.402247
     Cartesian components [Ang]:       [  0.746609,   1.183123,   0.095355]
   Electron size [Ang]:                  3.147525
     Cartesian components [Ang]:       [  1.474336,   1.724239,   2.181799]
   RMS electron-hole separation [Ang]:   3.247105
     Cartesian components [Ang]:       [  1.491465,   1.884113,   2.183881]
   Covariance(r_h, r_e) [Ang^2]:         0.664760
   Correlation coefficient:              0.150616
   Center-of-mass size [Ang]:            1.816778
     Cartesian components [Ang]:       [  0.899682,   1.139702,   1.091941]

 ------------------------------------------------------------------------------
 State A: ccsd: 0/Ag
 State B: cvs_eomee_ccsd/uhfref: 10/B3u
 Transition dipole moment (a.u.):
   A->B: 0.024722 (X 0.024722, Y 0.000000, Z 0.000000)
   B->A: 0.024025 (X 0.024025, Y 0.000000, Z 0.000000)
 Oscillator strength (a.u.): 0.004246
 Norm of one-particle transition density matrix:
   A->B: 0.894579;   B->A: 0.855050
   ||gamma^AB||*||gamma^BA||: 0.764910

State analysis of transition OPDM (A->B) using libwa module will be excecuted
 NTOs (alpha)
   Leading SVs and ENEs:
        0.6098   0.0930   0.0306   0.0289   0.0004   0.0003   0.0000   0.0000
 E(h) -11.4970 -11.4970 -11.4979 -11.4980 -11.4422 -11.4421  24.3796  21.4308
 E(e)  -0.0341   0.0186   0.1149   0.0906  -0.0104  -0.0120  -6.3090  -3.6191
 
   Sum of SVs (Omega):               0.763064
   Participation ratio (PR_NTO):     1.522963
   Entanglement entropy (S_HE):      1.063883
   Nr of entangled states (Z_HE):    2.090550
   Renormalized S_HE/Z_HE:  1.004100 /  2.005693
 NTOs (beta)
   Leading SVs and ENEs:
        0.0256   0.0081   0.0022   0.0013   0.0000   0.0000   0.0000   0.0000
 E(h) -11.4970 -11.4970 -11.4980 -11.4979 -11.4422 -11.4422  36.6061  24.1726
 E(e)  -0.0263  -0.0304   0.0375   0.1089  -0.0070   0.0468  -1.1989  -0.8335
 
   Sum of SVs (Omega):               0.037207
   Participation ratio (PR_NTO):     1.908115
   Entanglement entropy (S_HE):      0.223988
   Nr of entangled states (Z_HE):    1.167958
   Renormalized S_HE/Z_HE:  1.271722 /  2.414496
 
 Atomic CT numbers
   omega =     0.8003 (alpha:     0.7631, beta:     0.0372)
 
 Exciton analysis of the transition density matrix
 Total:
   <r_h> [Ang]:                        [  0.000000,  -0.000000,   0.000000]
   <r_e> [Ang]:                        [ -0.000000,  -0.000000,  -0.000000]
   |<r_e - r_h>| [Ang]:                  0.000000
   Hole size [Ang]:                      1.401607
     Cartesian components [Ang]:       [  0.730534,   1.192354,   0.095474]
   Electron size [Ang]:                  3.120619
     Cartesian components [Ang]:       [  1.448175,   1.753434,   2.136943]
   RMS electron-hole separation [Ang]:   3.186234
     Cartesian components [Ang]:       [  1.426875,   1.881614,   2.139074]
   Covariance(r_h, r_e) [Ang^2]:         0.775341
   Correlation coefficient:              0.177266
   Center-of-mass size [Ang]:            1.820264
     Cartesian components [Ang]:       [  0.898026,   1.167476,   1.069537]
 
 Alpha spin:
   <r_h> [Ang]:                        [  0.000000,  -0.000000,   0.000000]
   <r_e> [Ang]:                        [ -0.000000,  -0.000000,  -0.000000]
   |<r_e - r_h>| [Ang]:                  0.000000
   Hole size [Ang]:                      1.401605
     Cartesian components [Ang]:       [  0.730469,   1.192391,   0.095480]
   Electron size [Ang]:                  3.108610
     Cartesian components [Ang]:       [  1.444828,   1.724232,   2.145449]
   RMS electron-hole separation [Ang]:   3.187476
     Cartesian components [Ang]:       [  1.429091,   1.872334,   2.147572]
   Covariance(r_h, r_e) [Ang^2]:         0.733975
   Correlation coefficient:              0.168457
   Center-of-mass size [Ang]:            1.809413
     Cartesian components [Ang]:       [  0.894417,   1.149338,   1.073786]
 
 Beta spin:
   <r_h> [Ang]:                        [  0.000000,  -0.000000,   0.000000]
   <r_e> [Ang]:                        [ -0.000000,  -0.000000,  -0.000000]
   |<r_e - r_h>| [Ang]:                  0.000000
   Hole size [Ang]:                      1.401641
     Cartesian components [Ang]:       [  0.731854,   1.191594,   0.095349]
   Electron size [Ang]:                  3.357451
     Cartesian components [Ang]:       [  1.515177,   2.270950,   1.954353]
   RMS electron-hole separation [Ang]:   3.160646
     Cartesian components [Ang]:       [  1.380647,   2.062744,   1.956678]
   Covariance(r_h, r_e) [Ang^2]:         1.623693
   Correlation coefficient:              0.345031
   Center-of-mass size [Ang]:            2.030053
     Cartesian components [Ang]:       [  0.969092,   1.491586,   0.978339]


 All requested transition properties have been computed

 Transition Properties:   CPU 339.00 s  wall 124.49 s

 Total ccman2 time:   CPU 129006.93 s  wall 18341.08 s

 50 B3u                                                                        

 --------------------------------------------------------------
             Orbital Energies (a.u.) and Symmetries
 --------------------------------------------------------------

 Alpha MOs, Unrestricted
 -- Occupied --                  
-11.498 -11.498 -11.497 -11.497 -11.442 -11.442  -1.393  -1.263
  1 B2u   1 Ag    1 B3u   1 B1g   2 B3u   2 Ag    3 Ag    2 B2u                
 -1.247  -1.066  -1.048  -0.934  -0.869  -0.853  -0.816  -0.812
  3 B3u   2 B1g   4 Ag    5 Ag    4 B3u   3 B2u   4 B2u   5 B3u                
 -0.749  -0.727  -0.716  -0.609  -0.557
  1 B1u   3 B1g   6 Ag    1 B3g   1 B2g                                        
 -- Virtual --                   
 -0.144  -0.089  -0.078  -0.073  -0.070  -0.067  -0.053  -0.052
  1 Au    7 Ag    2 B1u   5 B2u   6 B3u   3 B1u   8 Ag    4 B1g                
 -0.051  -0.047  -0.045  -0.028  -0.028  -0.025  -0.024  -0.024
  9 Ag    2 B3g   2 B2g   6 B2u   7 B3u   7 B2u  10 Ag    8 B3u                
 -0.023  -0.021  -0.009  -0.008  -0.008  -0.007  -0.003   0.003
  2 Au    4 B1u   8 B2u  11 Ag    5 B1g   9 B3u   3 B2g   6 B1g                
  0.005   0.025   0.027   0.028   0.041   0.047   0.049   0.074
 12 Ag    5 B1u  10 B3u  13 Ag    3 B3g   4 B2g   9 B2u  14 Ag                 
  0.074   0.077   0.080   0.086   0.088   0.096   0.098   0.107
  7 B1g   5 B2g  10 B2u   3 Au   11 B3u   6 B1u  15 Ag   11 B2u                
  0.112   0.121   0.125   0.126   0.127   0.142   0.144   0.151
 12 B3u   8 B1g  13 B3u  16 Ag   12 B2u   9 B1g  17 Ag   14 B3u                
  0.166   0.171   0.191   0.235   0.242   0.251   0.256   0.274
  6 B2g  18 Ag   10 B1g  15 B3u  11 B1g  13 B2u  16 B3u  19 Ag                 
  0.336   0.338   0.339   0.351   0.431   0.433   0.502   0.532
 17 B3u  12 B1g  14 B2u  20 Ag   15 B2u  21 Ag   18 B3u  13 B1g                
  0.533   0.535   0.550   0.555   0.562   0.563   0.586   0.602
  7 B1u  16 B2u  19 B3u  14 B1g  22 Ag    4 B3g   7 B2g  23 Ag                 
  0.609   0.644   0.688   0.706   0.724   0.724   0.745   0.767
  4 Au    8 B1u   8 B2g  20 B3u  15 B1g  21 B3u  17 B2u  24 Ag                 
  0.776   0.809   0.820   0.863   0.873   0.882   0.895   0.897
 25 Ag   18 B2u  22 B3u  16 B1g  23 B3u  26 Ag   19 B2u  24 B3u                
  0.909   0.941   0.991   0.993   0.998   1.088   1.100   1.147
 17 B1g   9 B1u  27 Ag   18 B1g   5 B3g   6 B3g   9 B2g  10 B1u                
  1.163   1.267   1.341   1.489   1.547   1.560   1.573   1.606
  5 Au   25 B3u  28 Ag   20 B2u  29 Ag   26 B3u  21 B2u   6 Au                 
  1.613   1.628   1.687   1.690   1.703   1.708   1.783   1.836
 10 B2g  11 B1u  30 Ag   19 B1g  22 B2u  27 B3u  12 B1u   7 B3g                
  1.843   1.885   1.887   1.918   1.968   2.006   2.008   2.032
 11 B2g  20 B1g  31 Ag   23 B2u  12 B2g   8 B3g  28 B3u  21 B1g                
  2.033   2.083   2.096   2.116   2.132   2.180   2.404   2.404
 24 B2u  29 B3u  22 B1g   7 Au   32 Ag   13 B1u  13 B2g   8 Au                 
  2.509   2.509   2.567   2.617   2.617   2.693   2.718   2.753
 33 Ag   23 B1g  34 Ag   30 B3u  25 B2u  31 B3u  26 B2u  32 B3u                
  2.770   2.812   2.820   2.835   2.835   2.840   2.848   2.948
 35 Ag   33 B3u  27 B2u  24 B1g  14 B1u  34 B3u  36 Ag    9 B3g                
  2.982   3.029   3.030   3.068   3.088   3.127   3.236   3.284
 14 B2g  25 B1g   9 Au   26 B1g  15 B1u  37 Ag   15 B2g  28 B2u                
  3.458   3.560   3.635   3.701   3.703   3.803   4.147   4.189
 38 Ag   27 B1g  29 B2u  35 B3u  39 Ag   36 B3u  28 B1g  40 Ag                 
  4.238   4.283   4.323   4.894   5.004   5.213   5.222   5.484
 37 B3u  30 B2u  38 B3u  41 Ag   29 B1g  39 B3u  31 B2u  30 B1g                
  5.586   5.942  20.400  20.454  20.499  20.587  20.647  20.902
 42 Ag   40 B3u  43 Ag   32 B2u  41 B3u  31 B1g  44 Ag   42 B3u                
 79.974  80.032  80.071  80.143  80.201  80.390 321.819 321.871
 45 Ag   33 B2u  43 B3u  32 B1g  46 Ag   44 B3u  47 Ag   34 B2u                
321.907 321.966 322.019 322.1701431.3911431.4351431.4691431.516
 45 B3u  33 B1g  48 Ag   46 B3u  49 Ag   35 B2u  47 B3u  34 B1g                
*******1431.6898749.6328749.6668749.6988749.7328749.7788749.876
 50 Ag   48 B3u  51 Ag   36 B2u  49 B3u  35 B1g  52 Ag   50 B3u                

 Beta MOs, Unrestricted
 -- Occupied --                  
-11.490 -11.490 -11.489 -11.489 -11.449 -11.449  -1.370  -1.251
  1 Ag    1 B2u   1 B3u   1 B1g   2 B3u   2 Ag    3 Ag    3 B3u                
 -1.212  -1.045  -1.042  -0.930  -0.862  -0.847  -0.814  -0.806
  2 B2u   2 B1g   4 Ag    5 Ag    4 B3u   3 B2u   5 B3u   4 B2u                
 -0.725  -0.711  -0.668  -0.576
  3 B1g   6 Ag    1 B1u   1 B2g                                                
 -- Virtual --                   
 -0.239  -0.089  -0.072  -0.071  -0.070  -0.057  -0.052  -0.052
  1 B3g   7 Ag    5 B2u   2 B1u   6 B3u   3 B1u   8 Ag    4 B1g                
 -0.051  -0.050  -0.045  -0.045  -0.028  -0.028  -0.025  -0.024
  9 Ag    1 Au    2 B2g   2 B3g   6 B2u   7 B3u   7 B2u  10 Ag                 
 -0.024  -0.020  -0.019  -0.009  -0.008  -0.008  -0.007  -0.003
  8 B3u   4 B1u   2 Au    8 B2u  11 Ag    5 B1g   9 B3u   3 B2g                
  0.003   0.005   0.028   0.030   0.032   0.047   0.049   0.052
  6 B1g  12 Ag   10 B3u   5 B1u  13 Ag    4 B2g   9 B2u   3 B3g                
  0.074   0.076   0.087   0.088   0.089   0.098   0.099   0.101
 14 Ag    7 B1g  11 B3u   5 B2g  10 B2u   6 B1u  15 Ag    3 Au                 
  0.109   0.112   0.122   0.126   0.126   0.127   0.144   0.145
 11 B2u  12 B3u   8 B1g  16 Ag   13 B3u  12 B2u   9 B1g  17 Ag                 
  0.152   0.172   0.191   0.191   0.239   0.253   0.259   0.260
 14 B3u  18 Ag   10 B1g   6 B2g  15 B3u  13 B2u  16 B3u  11 B1g                
  0.274   0.338   0.341   0.343   0.351   0.433   0.435   0.517
 19 Ag   17 B3u  12 B1g  14 B2u  20 Ag   15 B2u  21 Ag   18 B3u                
  0.539   0.545   0.553   0.556   0.562   0.565   0.586   0.601
 13 B1g  19 B3u   7 B1u  16 B2u  14 B1g  22 Ag    7 B2g   4 B3g                
  0.606   0.641   0.643   0.701   0.709   0.727   0.730   0.747
 23 Ag    8 B1u   4 Au    8 B2g  20 B3u  21 B3u  15 B1g  17 B2u                
  0.768   0.780   0.817   0.820   0.870   0.878   0.881   0.897
 24 Ag   25 Ag   18 B2u  22 B3u  16 B1g  23 B3u  26 Ag   24 B3u                
  0.905   0.911   0.959   0.995   0.998   1.027   1.099   1.117
 19 B2u  17 B1g   9 B1u  27 Ag   18 B1g   5 B3g   9 B2g   6 B3g                
  1.169   1.172   1.270   1.357   1.492   1.557   1.559   1.580
 10 B1u   5 Au   25 B3u  28 Ag   20 B2u  29 Ag   26 B3u  21 B2u                
  1.614   1.617   1.640   1.686   1.695   1.706   1.723   1.788
  6 Au   10 B2g  11 B1u  30 Ag   19 B1g  27 B3u  22 B2u  12 B1u                
  1.843   1.850   1.886   1.892   1.918   1.991   2.011   2.012
 11 B2g   7 B3g  31 Ag   20 B1g  23 B2u  12 B2g   8 B3g  28 B3u                
  2.033   2.043   2.085   2.104   2.133   2.134   2.180   2.412
 21 B1g  24 B2u  29 B3u  22 B1g   7 Au   32 Ag   13 B1u  13 B2g                
  2.415   2.508   2.517   2.568   2.616   2.618   2.697   2.719
  8 Au   33 Ag   23 B1g  34 Ag   30 B3u  25 B2u  31 B3u  26 B2u                
  2.755   2.770   2.814   2.821   2.835   2.839   2.848   2.853
 32 B3u  35 Ag   33 B3u  27 B2u  24 B1g  34 B3u  36 Ag   14 B1u                
  2.977   2.984   3.031   3.061   3.072   3.082   3.126   3.246
  9 B3g  14 B2g  25 B1g   9 Au   26 B1g  15 B1u  37 Ag   15 B2g                
  3.289   3.466   3.561   3.639   3.702   3.706   3.805   4.155
 28 B2u  38 Ag   27 B1g  29 B2u  35 B3u  39 Ag   36 B3u  28 B1g                
  4.189   4.245   4.288   4.324   4.898   5.011   5.216   5.230
 40 Ag   37 B3u  30 B2u  38 B3u  41 Ag   29 B1g  39 B3u  31 B2u                
  5.494   5.585   5.946  20.403  20.459  20.499  20.592  20.645
 30 B1g  42 Ag   40 B3u  43 Ag   32 B2u  41 B3u  31 B1g  44 Ag                 
 20.903  79.975  80.034  80.071  80.144  80.200  80.391 321.819
 42 B3u  45 Ag   33 B2u  43 B3u  32 B1g  46 Ag   44 B3u  47 Ag                 
321.872 321.907 321.966 322.019 322.1701431.3911431.4351431.469
 34 B2u  45 B3u  33 B1g  48 Ag   46 B3u  49 Ag   35 B2u  47 B3u                
Archival summary:
1\1\n-62-23-4\SP\ProcedureUnspecified\BasisUnspecified\66(1+,2)\malop\ThuDec609:19:392018ThuDec609:19:392018\0\\#,ProcedureUnspecified,BasisUnspecified,\\1,2\C\H,1,1.0787\C,1,1.38607,2,120.89\H,3,1.08107,1,120.559,2,0,0\C,1,1.38607,2,120.89,3,-180,0\H,5,1.08107,1,120.559,2,-0,0\C,3,1.44519,1,120.89,2,-180,0\H,7,1.08107,3,118.551,1,-180,0\C,7,1.38607,3,120.89,1,0,0\H,9,1.0787,7,120.89,3,-180,0\C,9,1.38607,7,118.221,3,-0,0\H,11,1.08107,9,120.559,7,-180,0\\HF=-230.470883\\@

 Total job time:  18411.46s(wall), 129287.55s(cpu) 
 Thu Dec  6 09:19:39 2018

======= MOLDEN-FORMATTED INPUT FILE FOLLOWS =======
[Molden Format]
[Atoms] (Angs)
  H      1    1     -1.23929081     -2.13906917     -0.00000000
  C      2    6     -0.72259745     -1.18946830     -0.00000000
  C      3    6      0.72259745     -1.18946830      0.00000000
  H      4    1      1.23929081     -2.13906917      0.00000000
  C      5    6      1.43418649      0.00000000      0.00000000
  H      6    1      2.51288245      0.00000000      0.00000000
  C      7    6      0.72259745      1.18946830      0.00000000
  H      8    1      1.23929081      2.13906917      0.00000000
  C      9    6     -0.72259745      1.18946830     -0.00000000
  H     10    1     -1.23929081      2.13906917     -0.00000000
  C     11    6     -1.43418649     -0.00000000     -0.00000000
  H     12    1     -2.51288245     -0.00000000     -0.00000000

======= END OF MOLDEN-FORMATTED INPUT FILE =======


        *************************************************************
        *                                                           *
        *  Thank you very much for using Q-Chem.  Have a nice day.  *
        *                                                           *
        *************************************************************


*******1431.5651431.6898749.6328749.6668749.6988749.7328749.778
 34 B1g  50 Ag   48 B3u  51 Ag   36 B2u  49 B3u  35 B1g  52 Ag                 
*******
 50 B3u                                                                        
 --------------------------------------------------------------

          Ground-State Mulliken Net Atomic Charges

     Atom                 Charge (a.u.)    Spin (a.u.)
  --------------------------------------------------------
      1 H                     0.303226      -0.034125
      2 C                    -0.058540       0.500830
      3 C                    -0.058540       0.500830
      4 H                     0.303226      -0.034125
      5 C                    -0.269821      -0.452676
      6 H                     0.280450       0.019265
      7 C                    -0.058540       0.500830
      8 H                     0.303226      -0.034125
      9 C                    -0.058540       0.500830
     10 H                     0.303226      -0.034125
     11 C                    -0.269821      -0.452676
     12 H                     0.280450       0.019265
  --------------------------------------------------------
  Sum of atomic charges =     1.000000
  Sum of spin   charges =     1.000000

 -----------------------------------------------------------------
                    Cartesian Multipole Moments
 -----------------------------------------------------------------
    Charge (ESU x 10^10)
                 4.8032
    Dipole Moment (Debye)
         X       0.0000      Y       0.0000      Z       0.0000
       Tot       0.0000
    Quadrupole Moments (Debye-Ang)
        XX     -22.2030     XY       0.0000     YY     -18.3226
        XZ      -0.0000     YZ       0.0000     ZZ     -36.1624
    Octopole Moments (Debye-Ang^2)
       XXX      -0.0000    XXY       0.0000    XYY      -0.0000
       YYY      -0.0000    XXZ      -0.0000    XYZ      -0.0000
       YYZ       0.0000    XZZ      -0.0000    YZZ       0.0000
       ZZZ       0.0000
    Hexadecapole Moments (Debye-Ang^3)
      XXXX    -225.5655   XXXY       0.0000   XXYY     -68.7842
      XYYY      -0.0000   YYYY    -194.6768   XXXZ      -0.0000
      XXYZ       0.0000   XYYZ       0.0000   YYYZ       0.0000
      XXZZ     -60.5092   XYZZ       0.0000   YYZZ     -52.7057
      XZZZ       0.0000   YZZZ       0.0000   ZZZZ     -39.5415
 -----------------------------------------------------------------
