Q-Chem Developer Version!
                  Welcome to Q-Chem
     A Quantum Leap Into The Future Of Chemistry


 Q-Chem 5.1, Q-Chem, Inc., Pleasanton, CA (2018)

 Yihan Shao,  Zhengting Gan,  E. Epifanovsky,  A. T. B. Gilbert,  M. Wormit,  
 J. Kussmann,  A. W. Lange,  A. Behn,  Jia Deng,  Xintian Feng,  D. Ghosh,  
 M. Goldey,  P. R. Horn,  L. D. Jacobson,  I. Kaliman,  T. Kus,  A. Landau,  
 Jie Liu,  E. I. Proynov,  R. M. Richard,  R. P. Steele,  E. J. Sundstrom,  
 H. L. Woodcock III,  P. M. Zimmerman,  D. Zuev,  B. Albrecht,  E. Alguire,  
 S. A. Baeppler,  D. Barton,  Z. Benda,  Y. A. Bernard,  E. J. Berquist,  
 K. B. Bravaya,  H. Burton,  D. Casanova,  Chun-Min Chang,  Yunqing Chen,  
 A. Chien,  K. D. Closser,  M. P. Coons,  S. Coriani,  S. Dasgupta,  
 A. L. Dempwolff,  M. Diedenhofen,  Hainam Do,  R. G. Edgar,  Po-Tung Fang,  
 S. Faraji,  S. Fatehi,  Qingguo Feng,  K. D. Fenk,  J. Fosso-Tande,  
 Qinghui Ge,  A. Ghysels,  G. Gidofalvi,  J. Gomes,  J. Gonthier,  A. Gunina,  
 D. Hait,  M. W. D. Hanson-Heine,  P. H. P. Harbach,  A. W. Hauser,  
 J. E. Herr,  E. G. Hohenstein,  Z. C. Holden,  Kerwin Hui,  B. C. Huynh,  
 T.-C. Jagau,  Hyunjun Ji,  B. Kaduk,  K. Khistyaev,  Jaehoon Kim,  
 P. Klunzinger,  K. Koh,  D. Kosenkov,  L. Koulias,  T. Kowalczyk,  
 C. M. Krauter,  A. Kunitsa,  Ka Un Lao,  A. Laurent,  K. V. Lawler,  
 Joonho Lee,  D. Lefrancois,  S. Lehtola,  D. S. Levine,  Yi-Pei Li,  
 You-Sheng Lin,  Fenglai Liu,  E. Livshits,  A. Luenser,  P. Manohar,  
 E. Mansoor,  S. F. Manzer,  Shan-Ping Mao,  Yuezhi Mao,  N. Mardirossian,  
 A. V. Marenich,  T. Markovich,  L. A. Martinez-Martinez,  S. A. Maurer,  
 N. J. Mayhall,  S. C. McKenzie,  J.-M. Mewes,  A. F. Morrison,  
 J. W. Mullinax,  K. Nanda,  T. S. Nguyen-Beck,  R. Olivares-Amaya,  
 J. A. Parkhill,  T. M. Perrine,  F. Plasser,  P. Pokhilko,  S. Prager,  
 A. Prociuk,  E. Ramos,  D. R. Rehn,  F. Rob,  M. Schneider,  N. Sergueev,  
 S. M. Sharada,  S. Sharma,  D. W. Small,  T. Stauch,  T. Stein,  
 Yu-Chuan Su,  A. J. W. Thom,  A. Tkatchenko,  T. Tsuchimochi,  N. M. Tubman,  
 L. Vogt,  M. L. Vidal,  O. Vydrov,  M. A. Watson,  J. Wenzel,  
 M. de Wergifosse,  T. A. Wesolowski,  A. White,  J. Witte,  A. Yamada,  
 Jun Yang,  K. Yao,  S. Yeganeh,  S. R. Yost,  Zhi-Qiang You,  A. Zech,  
 Igor Ying Zhang,  Xing Zhang,  Yan Zhao,  Ying Zhu,  B. R. Brooks,  
 G. K. L. Chan,  C. J. Cramer,  M. S. Gordon,  W. J. Hehre,  A. Klamt,  
 M. W. Schmidt,  C. D. Sherrill,  D. G. Truhlar,  A. Aspuru-Guzik,  R. Baer,  
 A. T. Bell,  N. A. Besley,  Jeng-Da Chai,  A. E. DePrince, III,  
 R. A. DiStasio Jr.,  A. Dreuw,  B. D. Dunietz,  T. R. Furlani,  
 Chao-Ping Hsu,  Yousung Jung,  Jing Kong,  D. S. Lambrecht,  WanZhen Liang,  
 C. Ochsenfeld,  V. A. Rassolov,  L. V. Slipchenko,  J. E. Subotnik,  
 T. Van Voorhis,  J. M. Herbert,  A. I. Krylov,  P. M. W. Gill,  M. Head-Gordon

 Contributors to earlier versions of Q-Chem not listed above: 
 R. D. Adamson,  B. Austin,  J. Baker,  G. J. O. Beran,  K. Brandhorst,  
 S. T. Brown,  E. F. C. Byrd,  A. K. Chakraborty,  C.-L. Cheng,  
 Siu Hung Chien,  D. M. Chipman,  D. L. Crittenden,  H. Dachsel,  
 R. J. Doerksen,  A. D. Dutoi,  L. Fusti-Molnar,  W. A. Goddard III,  
 A. Golubeva-Zadorozhnaya,  S. R. Gwaltney,  G. Hawkins,  A. Heyden,  
 S. Hirata,  G. Kedziora,  F. J. Keil,  C. Kelley,  Jihan Kim,  R. A. King,  
 R. Z. Khaliullin,  P. P. Korambath,  W. Kurlancheek,  A. M. Lee,  M. S. Lee,  
 S. V. Levchenko,  Ching Yeh Lin,  D. Liotard,  R. C. Lochan,  I. Lotan,  
 P. E. Maslen,  N. Nair,  D. P. O'Neill,  D. Neuhauser,  E. Neuscamman,  
 C. M. Oana,  R. Olson,  B. Peters,  R. Peverati,  P. A. Pieniazek,  
 Y. M. Rhee,  J. Ritchie,  M. A. Rohrdanz,  E. Rosta,  N. J. Russ,  
 H. F. Schaefer III,  N. E. Schultz,  N. Shenvi,  A. C. Simmonett,  A. Sodt,  
 D. Stuck,  K. S. Thanthiriwatte,  V. Vanovschi,  Tao Wang,  A. Warshel,  
 C. F. Williams,  Q. Wu,  X. Xu,  W. Zhang

 Please cite Q-Chem as follows:
 Y. Shao et al., Mol. Phys. 113, 184-215 (2015)
 DOI: 10.1080/00268976.2014.952696

 Q-Chem 5.1.1 for Intel X86 EM64T Linux

 Parts of Q-Chem use Armadillo 8.300.2 (Tropical Shenanigans).
 http://arma.sourceforge.net/

 Q-Chem begins on Fri Dec  7 07:44:11 2018  


Host: 0

     Scratch files written to /work1/malop/qc_7505171.hnode2//
Input Ideriv = 0
Curr. Ideriv = -1
Max.  Ideriv = 0

Checking the input file for inconsistencies... 	...done.

--------------------------------------------------------------
User input:
--------------------------------------------------------------
$commen
RI-MP2/cc-pVTZ optimized geometry for neutral species 
NEXAFS
basis = 6-311(2+,+)G** (ucC)
$end

$molecule
+1 2
H       2.4750347531     0.0000000000     0.0000000000
C       1.3935929418     0.0000000000     0.0000000000
C       0.6967964709     1.2068868901     0.0000000000
H       1.2375173766     2.1434429715     0.0000000000
C      -0.6967964709     1.2068868901     0.0000000000
H      -1.2375173766     2.1434429715     0.0000000000
C      -1.3935929418    -0.0000000000     0.0000000000
H      -2.4750347531    -0.0000000000     0.0000000000
C      -0.6967964709    -1.2068868901     0.0000000000
H      -1.2375173766    -2.1434429715     0.0000000000
C       0.6967964709    -1.2068868901     0.0000000000
H       1.2375173766    -2.1434429715     0.0000000000
$end

$rem
   JOB_TYPE  =  SP
   BASIS  =  general
   METHOD  =  EOM-CCSD
   CVS_EE_STATES = [0,0,0,0,0,10,10,10]
   eom_preconv_singles = true
   n_frozen_core = fc
   cc_trans_prop = true
   use_libqints = 1   !use new int library (will be def in trunk)
   cc_memory = 100000
   EOM_DAVIDSON_MAX_ITER 200
   EOM_DAVIDSON_MAXVECTORS = 1000
   eom_davidson_convergence = 4
   eom_shift = 10000
   state_analysis = true
   molden_format  = true
   nto_pairs      = 4
   pop_mulliken   = true
$end

$basis
H    0
6-311(2+,+)G**
****
C    0
S    1    1.000000
   4.56324000E+03    1.96665000E-03
S    1    1.000000
   6.82024000E+02    1.52306000E-02
S    1    1.000000
   1.54973000E+02    7.61269000E-02
S    1    1.000000
   4.44553000E+01    2.60801000E-01
S    1    1.000000
   1.30290000E+01    6.16462000E-01
S    1    1.000000
   1.82773000E+00    2.21006000E-01
SP   3    1.000000
   2.09642000E+01    1.14660000E-01   4.02487000E-02
   4.80331000E+00    9.19999000E-01   2.37594000E-01
   1.45933000E+00   -3.03068000E-03   8.15854000E-01
SP   1    1.000000
   4.83456000E-01    1.00000000E+00   1.00000000E+00
SP   1    1.000000
   1.45585000E-01    1.00000000E+00   1.00000000E+00
SP   1    1.000000
   4.38000000E-02    1.00000000E+00   1.00000000E+00
SP   1    1.000000
   1.31927711E-02    1.00000000E+00   1.00000000E+00
D    1    1.000000
   6.26000000E-01    1.00000000E+00
****
end

--------------------------------------------------------------

 Q-Chem warning in module forms1/BasisType.C, line 1761:

 Setting pure/cartesian flag to 2111 for general basis


 Requested basis set is non-standard
 There are 102 shells and 228 basis functions
MEM_TOTAL is adjusted to CC_MEMORY + MEM_STATIC!
 Total memory of 100192MB is distributed as follows: 
   QALLOC including MEM_STATIC uses 192MB
   MEM_STATIC is set to 192MB
   CCMAN JOB total memory use is  100000MB
 Warning: actual memory use might exceed 100192MB

 Total QAlloc Memory Limit    192 MB
 Mega-Array Size       188 MB
 MEM_STATIC part       192 MB
 ----------------------------------------------------------------
             Standard Nuclear Orientation (Angstroms)
    I     Atom           X                Y                Z
 ----------------------------------------------------------------
    1      H       2.4750347531     0.0000000000    -0.0000000000
    2      C       1.3935929418     0.0000000000    -0.0000000000
    3      C       0.6967964709     1.2068868901     0.0000000000
    4      H       1.2375173766     2.1434429715     0.0000000000
    5      C      -0.6967964709     1.2068868901     0.0000000000
    6      H      -1.2375173766     2.1434429715     0.0000000000
    7      C      -1.3935929418     0.0000000000     0.0000000000
    8      H      -2.4750347531     0.0000000000     0.0000000000
    9      C      -0.6967964709    -1.2068868901    -0.0000000000
   10      H      -1.2375173766    -2.1434429715    -0.0000000000
   11      C       0.6967964709    -1.2068868901    -0.0000000000
   12      H       1.2375173766    -2.1434429715    -0.0000000000
 ----------------------------------------------------------------
 Molecular Point Group                 D2h   NOp =  8
 Largest Abelian Subgroup              D2h   NOp =  8
 Nuclear Repulsion Energy =   203.7187449024 hartrees
 There are       21 alpha and       20 beta electrons

                       Distance Matrix (Angstroms)
             H (  1)   C (  2)   C (  3)   H (  4)   C (  5)   H (  6)
   C (  2)  1.081442
   C (  3)  2.149118  1.393593
   H (  4)  2.475035  2.149118  1.081442
   C (  5)  3.393684  2.413774  1.393593  2.149118
   H (  6)  4.286886  3.393684  2.149118  2.475035  1.081442
   C (  7)  3.868628  2.787186  2.413774  3.393684  1.393593  2.149118
   H (  8)  4.950070  3.868628  3.393684  4.286886  2.149118  2.475035
   C (  9)  3.393684  2.413774  2.787186  3.868628  2.413774  3.393684
   H ( 10)  4.286886  3.393684  3.868628  4.950070  3.393684  4.286886
   C ( 11)  2.149118  1.393593  2.413774  3.393684  2.787186  3.868628
   H ( 12)  2.475035  2.149118  3.393684  4.286886  3.868628  4.950070
             C (  7)   H (  8)   C (  9)   H ( 10)   C ( 11)
   H (  8)  1.081442
   C (  9)  1.393593  2.149118
   H ( 10)  2.149118  2.475035  1.081442
   C ( 11)  2.413774  3.393684  1.393593  2.149118
   H ( 12)  3.393684  4.286886  2.149118  2.475035  1.081442

 A cutoff of  1.0D-14 yielded   4632 shell pairs
 There are     25539 function pairs (     26958 Cartesian)

 -------------------------------------------------------
 OpenMP Integral Computing Module                       
 Release: version 1.0, May 2013, Q-Chem Inc. Pittsburgh 
 -------------------------------------------------------
 Integral Job Info:
 Integral job number is                      11
 Integral operator is                         1
 short-range coefficients                     0
 long-range coefficients              100000000
 Omega coefficients                           0
 if combine SR and LR in K                    0
 Integral screening is                        0
 Integral computing path is                   2
 max size of driver memory is            800000
 size of driver memory is                593474
 size of scratch memory is              1367512
 max col of scratch BK array               1296
 max len of scratch array in speh3          155
 max len of scratch index in speh4           18
 max int batch size is                      520
 min int batch size is                       52
 fixed nKL is                                52
 max L of basis functions is                  2
 order of int derivative is                   0
 number of shells is                        102
 number of basis is                         234
 number of cartesian basis is               234
 number of contracted shell pairs          4632
 number of primitive shell pairs           6390
 maxK2 (contraction) of shell pair            9
 max number of K2 of shell pair               1
 max number of CS2 of shell pair           1374
 max number of PS2 of shell pair           1374
 mem total for path MDJ                  537338
 -------------------------------------------------------
 Smallest overlap matrix eigenvalue = 9.20E-09
 Linear dependence detected in AO basis
 Tighter screening thresholds may be required for diffuse basis sets
 Use S2THRESH > 14 and THRESH = 14 in case of SCF convergence issues
 Number of orthogonalized atomic orbitals = 221
 Maximum deviation from orthogonality = 4.514E-11

 Scale SEOQF with 1.000000e-01/1.000000e-01/1.000000e-01

 Standard Electronic Orientation quadrupole field applied
 Nucleus-field energy     =     0.0000000057 hartrees
 Guess MOs from core Hamiltonian diagonalization

 -----------------------------------------------------------------------
  General SCF calculation program by
  Eric Jon Sundstrom, Paul Horn, Yuezhi Mao, Dmitri Zuev, Alec White,
  David Stuck, Shaama M.S., Shane Yost, Joonho Lee, David Small,
  Daniel Levine, Susi Lehtola, Hugh Burton, Evgeny Epifanovsky
 -----------------------------------------------------------------------
 Hartree-Fock
 A unrestricted SCF calculation will be
 performed using DIIS
 SCF converges when DIIS error is below 1.0e-08
 ---------------------------------------
  Cycle       Energy         DIIS error
 ---------------------------------------
    1    -187.2971054673      4.19e-02  
    2    -174.0428716876      2.21e-02  
    3    -222.2080815142      1.62e-02  
    4    -229.4003015501      5.85e-03  
    5    -230.2978058017      2.37e-03  
    6    -230.4475106087      7.56e-04  
    7    -230.4641393672      1.77e-04  
    8    -230.4652279468      3.83e-05  
    9    -230.4653635855      2.01e-05  
   10    -230.4654334747      6.40e-06  
   11    -230.4654399598      1.01e-06  
   12    -230.4654400213      3.40e-07  
   13    -230.4654400316      1.09e-07  
   14    -230.4654400325      5.16e-08  
   15    -230.4654400328      2.31e-08  
   16    -230.4654400329      1.80e-08  
   17    -230.4654400331      1.56e-08  
   18    -230.4654400334      9.06e-09  Convergence criterion met
 ---------------------------------------
 SCF time:   CPU 270.60s  wall 29.00s 
<S^2> =          0.872018632
 SCF   energy in the final basis set =     -230.4654400334
 Total energy in the final basis set =     -230.4654400334


 ------------------------------------------------------------------------------

   CCMAN2: suite of methods based on coupled cluster
           and equation of motion theories.

   Components:
   * libvmm-1.3-trunk
     by Evgeny Epifanovsky, Ilya Kaliman.
   * libtensor-2.5-trunk
     by Evgeny Epifanovsky, Michael Wormit, Dmitry Zuev, Sam Manzer, 
        Ilya Kaliman.
   * libcc-2.5-trunk
     by Evgeny Epifanovsky, Arik Landau, Tomasz Kus, Kirill Khistyaev, 
        Dmitry Zuev, Prashant Manohar, Xintian Feng, Anna Krylov, 
        Matthew Goldey, Alec White, Thomas Jagau, Kaushik Nanda, 
        Anastasia Gunina, Alexander Kunitsa, Joonho Lee.

   CCMAN original authors:
   Anna I. Krylov, C. David Sherrill, Steven R. Gwaltney,
   Edward F. C. Byrd (2000)
   Sergey V. Levchenko, Lyudmila V. Slipchenko, Tao Wang,
   Ana-Maria C. Cristian (2003)
   Piotr A. Pieniazek, C. Melania Oana, Evgeny Epifanovsky (2007)
   Prashant Manohar (2009)

 ------------------------------------------------------------------------------


 Allocating and initializing 100000MB of RAM...
 Calculation will run on 10 cores.


 Alpha MOs, Unrestricted
 -- Occupied --                  
-11.495 -11.495 -11.494 -11.494 -11.442 -11.442  -1.403  -1.282
  1 B2u   1 Ag    1 B3u   1 B1g   2 B3u   2 Ag    3 Ag    2 B2u                
 -1.238  -1.063  -1.057  -0.938  -0.866  -0.860  -0.830  -0.801
  3 B3u   2 B1g   4 Ag    5 Ag    4 B3u   3 B2u   4 B2u   5 B3u                
 -0.757  -0.723  -0.720  -0.625  -0.547
  1 B1u   3 B1g   6 Ag    1 B3g   1 B2g                                        
 -- Virtual --                   
 -0.135  -0.089  -0.082  -0.073  -0.070  -0.068  -0.053  -0.052
  1 Au    7 Ag    2 B1u   5 B2u   6 B3u   3 B1u   8 Ag    4 B1g                
 -0.051  -0.048  -0.045  -0.028  -0.028  -0.026  -0.025  -0.023
  9 Ag    2 B3g   2 B2g   6 B2u   7 B3u   7 B2u  10 Ag    8 B3u                
 -0.023  -0.022  -0.010  -0.008  -0.008  -0.007  -0.003   0.003
  2 Au    4 B1u   8 B2u   5 B1g  11 Ag    9 B3u   3 B2g   6 B1g                
  0.004   0.024   0.027   0.028   0.040   0.048   0.049   0.074
 12 Ag    5 B1u  13 Ag   10 B3u   3 B3g   4 B2g   9 B2u  14 Ag                 
  0.076   0.079   0.079   0.086   0.088   0.095   0.097   0.105
  7 B1g   5 B2g  10 B2u   3 Au   11 B3u   6 B1u  15 Ag   11 B2u                
  0.112   0.121   0.126   0.127   0.127   0.142   0.144   0.152
 12 B3u   8 B1g  16 Ag   13 B3u  12 B2u   9 B1g  17 Ag   14 B3u                
  0.169   0.172   0.191   0.245   0.250   0.257   0.261   0.269
  6 B2g  18 Ag   10 B1g  13 B2u  15 B3u  16 B3u  11 B1g  19 Ag                 
  0.340   0.341   0.342   0.349   0.429   0.435   0.511   0.529
 14 B2u  12 B1g  17 B3u  20 Ag   15 B2u  21 Ag   18 B3u  16 B2u                
  0.530   0.549   0.551   0.555   0.556   0.558   0.586   0.601
  7 B1u  13 B1g  19 B3u  22 Ag   14 B1g   4 B3g   7 B2g  23 Ag                 
  0.611   0.642   0.690   0.704   0.735   0.738   0.743   0.753
  4 Au    8 B1u   8 B2g  20 B3u  21 B3u  17 B2u  15 B1g  24 Ag                 
  0.775   0.809   0.823   0.863   0.883   0.884   0.893   0.902
 25 Ag   18 B2u  22 B3u  16 B1g  26 Ag   23 B3u  19 B2u  24 B3u                
  0.918   0.938   0.992   0.995   1.003   1.079   1.111   1.155
 17 B1g   9 B1u  18 B1g  27 Ag    5 B3g   6 B3g   9 B2g  10 B1u                
  1.163   1.270   1.332   1.498   1.557   1.564   1.582   1.619
  5 Au   25 B3u  28 Ag   20 B2u  29 Ag   21 B2u  26 B3u  10 B2g                
  1.623   1.623   1.693   1.699   1.705   1.720   1.779   1.826
  6 Au   11 B1u  30 Ag   19 B1g  22 B2u  27 B3u  12 B1u   7 B3g                
  1.851   1.890   1.897   1.923   1.987   2.010   2.026   2.030
 11 B2g  20 B1g  31 Ag   23 B2u  12 B2g   8 B3g  24 B2u  28 B3u                
  2.036   2.085   2.116   2.124   2.138   2.165   2.412   2.424
 21 B1g  29 B3u  22 B1g  32 Ag    7 Au   13 B1u  13 B2g   8 Au                 
  2.521   2.533   2.560   2.609   2.627   2.715   2.725   2.767
 23 B1g  33 Ag   34 Ag   25 B2u  30 B3u  31 B3u  26 B2u  32 B3u                
  2.772   2.817   2.819   2.835   2.837   2.839   2.852   2.950
 35 Ag   33 B3u  27 B2u  24 B1g  14 B1u  34 B3u  36 Ag    9 B3g                
  2.985   3.039   3.046   3.084   3.106   3.121   3.245   3.320
 14 B2g   9 Au   25 B1g  15 B1u  26 B1g  37 Ag   15 B2g  28 B2u                
  3.528   3.549   3.671   3.688   3.706   3.844   4.158   4.182
 38 Ag   27 B1g  29 B2u  35 B3u  39 Ag   36 B3u  28 B1g  40 Ag                 
  4.254   4.298   4.305   4.898   5.037   5.215   5.229   5.535
 37 B3u  30 B2u  38 B3u  41 Ag   29 B1g  31 B2u  39 B3u  30 B1g                
  5.564   5.973  20.414  20.467  20.498  20.608  20.641  20.918
 42 Ag   40 B3u  43 Ag   32 B2u  41 B3u  31 B1g  44 Ag   42 B3u                
 79.986  80.044  80.073  80.164  80.196  80.404 321.830 321.882
 45 Ag   33 B2u  43 B3u  32 B1g  46 Ag   44 B3u  47 Ag   34 B2u                
321.909 321.985 322.015 322.1821431.4011431.4461431.4711431.532
 45 B3u  33 B1g  48 Ag   46 B3u  49 Ag   35 B2u  47 B3u  34 B1g                
*******1431.7008749.6418749.6768749.7008749.7468749.7758749.884
 50 Ag   48 B3u  51 Ag   36 B2u  49 B3u  35 B1g  52 Ag   50 B3u                

 Beta MOs, Unrestricted
 -- Occupied --                  
-11.487 -11.487 -11.486 -11.486 -11.449 -11.449  -1.377  -1.242
  1 Ag    1 B2u   1 B3u   1 B1g   2 B3u   2 Ag    3 Ag    3 B3u                
 -1.229  -1.051  -1.042  -0.934  -0.860  -0.853  -0.821  -0.803
  2 B2u   4 Ag    2 B1g   5 Ag    4 B3u   3 B2u   4 B2u   5 B3u                
 -0.721  -0.716  -0.670  -0.569
  3 B1g   6 Ag    1 B1u   1 B2g                                                
 -- Virtual --                   
 -0.249  -0.089  -0.073  -0.072  -0.070  -0.059  -0.052  -0.052
  1 B3g   7 Ag    5 B2u   2 B1u   6 B3u   3 B1u   8 Ag    4 B1g                
 -0.051  -0.046  -0.045  -0.045  -0.028  -0.028  -0.025  -0.024
  9 Ag    2 B3g   2 B2g   1 Au    6 B2u   7 B3u   7 B2u  10 Ag                 
 -0.024  -0.021  -0.018  -0.009  -0.008  -0.008  -0.007  -0.003
  8 B3u   4 B1u   2 Au    8 B2u  11 Ag    5 B1g   9 B3u   3 B2g                
  0.004   0.004   0.028   0.029   0.031   0.047   0.049   0.051
  6 B1g  12 Ag   10 B3u   5 B1u  13 Ag    4 B2g   9 B2u   3 B3g                
  0.074   0.077   0.088   0.088   0.089   0.097   0.098   0.103
 14 Ag    7 B1g  10 B2u  11 B3u   5 B2g   6 B1u  15 Ag    3 Au                 
  0.108   0.112   0.123   0.126   0.127   0.127   0.144   0.144
 11 B2u  12 B3u   8 B1g  16 Ag   13 B3u  12 B2u   9 B1g  17 Ag                 
  0.153   0.173   0.191   0.195   0.247   0.251   0.262   0.269
 14 B3u  18 Ag   10 B1g   6 B2g  13 B2u  15 B3u  16 B3u  19 Ag                 
  0.277   0.343   0.343   0.344   0.349   0.431   0.437   0.527
 11 B1g  12 B1g  17 B3u  14 B2u  20 Ag   15 B2u  21 Ag   18 B3u                
  0.547   0.551   0.552   0.553   0.560   0.566   0.586   0.596
 19 B3u  16 B2u   7 B1u  13 B1g  22 Ag   14 B1g   7 B2g   4 B3g                
  0.605   0.637   0.646   0.702   0.707   0.739   0.739   0.750
 23 Ag    8 B1u   4 Au    8 B2g  20 B3u  21 B3u  17 B2u  15 B1g                
  0.753   0.780   0.816   0.822   0.870   0.881   0.890   0.903
 24 Ag   25 Ag   18 B2u  22 B3u  16 B1g  26 Ag   23 B3u  19 B2u                
  0.903   0.920   0.955   0.997   1.001   1.030   1.109   1.110
 24 B3u  17 B1g   9 B1u  18 B1g  27 Ag    5 B3g   9 B2g   6 B3g                
  1.172   1.179   1.274   1.346   1.501   1.565   1.572   1.581
  5 Au   10 B1u  25 B3u  28 Ag   20 B2u  29 Ag   21 B2u  26 B3u                
  1.623   1.630   1.636   1.693   1.705   1.717   1.724   1.785
 10 B2g   6 Au   11 B1u  30 Ag   19 B1g  27 B3u  22 B2u  12 B1u                
  1.840   1.850   1.896   1.897   1.924   2.010   2.015   2.032
  7 B3g  11 B2g  20 B1g  31 Ag   23 B2u  12 B2g   8 B3g  28 B3u                
  2.036   2.036   2.089   2.125   2.126   2.156   2.165   2.421
 21 B1g  24 B2u  29 B3u  22 B1g  32 Ag    7 Au   13 B1u  13 B2g                
  2.435   2.529   2.533   2.561   2.610   2.626   2.718   2.726
  8 Au   23 B1g  33 Ag   34 Ag   25 B2u  30 B3u  31 B3u  26 B2u                
  2.769   2.773   2.819   2.820   2.836   2.839   2.852   2.856
 32 B3u  35 Ag   33 B3u  27 B2u  24 B1g  34 B3u  36 Ag   14 B1u                
  2.980   2.986   3.047   3.070   3.079   3.110   3.121   3.256
  9 B3g  14 B2g  25 B1g   9 Au   15 B1u  26 B1g  37 Ag   15 B2g                
  3.324   3.536   3.550   3.678   3.689   3.710   3.847   4.166
 28 B2u  38 Ag   27 B1g  29 B2u  35 B3u  39 Ag   36 B3u  28 B1g                
  4.182   4.260   4.304   4.307   4.904   5.043   5.223   5.231
 40 Ag   37 B3u  30 B2u  38 B3u  41 Ag   29 B1g  31 B2u  39 B3u                
  5.546   5.563   5.977  20.417  20.472  20.497  20.613  20.640
 30 B1g  42 Ag   40 B3u  43 Ag   32 B2u  41 B3u  31 B1g  44 Ag                 
 20.920  79.987  80.045  80.072  80.165  80.195  80.405 321.830
 42 B3u  45 Ag   33 B2u  43 B3u  32 B1g  46 Ag   44 B3u  47 Ag                 
321.883 321.909 321.985 322.015 322.1821431.4011431.4461431.471
 34 B2u  45 B3u  33 B1g  48 Ag   46 B3u  49 Ag   35 B2u  47 B3u                
*******1431.5621431.7008749.6418749.6768749.7008749.7468749.775
 34 B1g  50 Ag   48 B3u  51 Ag   36 B2u  49 B3u  35 B1g  52 Ag                 
*******

 Occupation and symmetry of molecular orbitals

 Point group: D2h (8 irreducible representations).

                           Ag   B1g  B2g  B3g  Au   B1u  B2u  B3u   All 
 ------------------------------------------------------------------------
 All molecular orbitals:
  - Alpha                  52   35   15   9    9    15   36   50    221 
  - Beta                   52   35   15   9    9    15   36   50    221 
 ------------------------------------------------------------------------
 Alpha orbitals:
  - Frozen occupied        2    1    0    0    0    0    1    2     6   
  - Active occupied        4    2    1    1    0    1    3    3     15  
  - Active virtual         46   32   14   8    9    14   32   45    200 
  - Frozen virtual         0    0    0    0    0    0    0    0     0   
 ------------------------------------------------------------------------
 Beta orbitals:
  - Frozen occupied        2    1    0    0    0    0    1    2     6   
  - Active occupied        4    2    1    0    0    1    3    3     14  
  - Active virtual         46   32   14   9    9    14   32   45    201 
  - Frozen virtual         0    0    0    0    0    0    0    0     0   
 ------------------------------------------------------------------------

 Import integrals:   CPU 0.00 s  wall 0.00 s

 Import integrals:   CPU 1992.00 s  wall 2120.22 s

 MP2 amplitudes:   CPU 25.89 s  wall 16.17 s

Running a double precision version
           CCSD T amplitudes will be solved using DIIS.

           Start     Size      MaxIter   EConv     TConv     
           3         7         100       1.00e-06  1.00e-04  
 ------------------------------------------------------------------------------
           Energy (a.u.)   Ediff      Tdiff       Comment
 ------------------------------------------------------------------------------
          -231.23762511                           
     1    -231.25637948   1.88e-02   8.66e-01     
     2    -231.27995235   2.36e-02   1.07e-01     
     3    -231.28226536   2.31e-03   3.89e-02     
     4    -231.28538587   3.12e-03   1.46e-02     Switched to DIIS steps.
     5    -231.28683767   1.45e-03   1.30e-02     
     6    -231.28701905   1.81e-04   4.21e-03     
     7    -231.28704415   2.51e-05   1.19e-03     
     8    -231.28706059   1.64e-05   5.00e-04     
     9    -231.28706148   8.91e-07   1.09e-04     
    10    -231.28706193   4.47e-07   3.83e-05     
 ------------------------------------------------------------------------------
          -231.28706193                           CCSD T converged.

End of double precision
 SCF energy                 = -230.46544003
 MP2 energy                 = -231.23762511
 CCSD correlation energy     =   -0.82162189
 CCSD total energy           = -231.28706193

 CCSD  T1^2 = 0.0256  T2^2 = 0.3219  Leading amplitudes:

 Amplitude    Orbitals with energies
 -0.0859       1 (B1u) B                 ->    3 (B1u) B                  
              -0.6703                         -0.0590                     
  0.0536       1 (B1u) B                 ->    2 (B1u) B                  
              -0.6703                         -0.0715                     
 -0.0501       1 (B2g) B                 ->    6 (B2g) B                  
              -0.5693                          0.1954                     
  0.0415       1 (B1u) A                 ->    2 (B1u) A                  
              -0.7568                         -0.0824                     

 Amplitude    Orbitals with energies
 -0.0665       1 (B2g) A     1 (B1u) B   ->    1 (Au) A      1 (B3g) B    
              -0.5472       -0.6703           -0.1349       -0.2490       
  0.0665       1 (B2g) A     1 (B1u) B   ->    1 (B3g) B     1 (Au) A     
              -0.5472       -0.6703           -0.2490       -0.1349       
  0.0665       1 (B1u) B     1 (B2g) A   ->    1 (Au) A      1 (B3g) B    
              -0.6703       -0.5472           -0.1349       -0.2490       
 -0.0665       1 (B1u) B     1 (B2g) A   ->    1 (B3g) B     1 (Au) A     
              -0.6703       -0.5472           -0.2490       -0.1349       

 Computing CCSD intemediates for later calculations in double precision
 Finished.

Running a double precision version
           CCSD Lambda amplitudes will be solved using DIIS.
           Start     Size      MaxIter   EConv     LConv     
           3         7         100       1.00e-06  1.00e-04  
 ------------------------------------------------------------------------------
            Enorm      Ldiff       Comment
 ------------------------------------------------------------------------------
     1     5.46e-02   4.41e-02     
     2     1.03e-02   2.90e-03     
     3     4.57e-03   2.04e-03     
     4     1.98e-03   9.36e-04     Switched to DIIS steps.
     5     6.87e-04   5.50e-04     
     6     2.59e-04   1.69e-04     
     7     1.01e-04   5.27e-05     
     8     3.38e-05   2.12e-05     
     9     1.12e-05   6.53e-06     
    10     4.22e-06   1.86e-06     
    11     1.28e-06   4.92e-07     
    12     5.11e-07   6.11e-08     
 ------------------------------------------------------------------------------
                                   CCSD Lambda converged.

 CCSD calculation:   CPU 2292.45 s  wall 315.22 s

        Solving for CVS-EOMEE-CCSD B1u transitions.

       EOMEE-CCSD-SINGLES right amplitudes will be solved using Davidson.
        Amplitudes will be solved using shifted  algorithm.
     Hard-coded thresholds: 
     LinDepThresh=1.00e-15  NormThresh=1.00e-06  ReorthogonThresh=1.00e-02

      Roots     MaxVec    MaxIter   Precond   Conv      Shift    
      10        1000      200       1         1.00e-04  1.00e+01  
 ------------------------------------------------------------------------------
      Iter ConvRoots NVecs ResNorm Current eigenvalues (eV)
 ------------------------------------------------------------------------------
      0    0      10    2.59e-02   296.6309   300.6729   300.7781   302.1513   304.2275   306.1659   306.3047   306.3769   307.4246   307.5718   
      1    0      20    4.95e-02   292.9028   296.7792   297.9664   299.1766   303.8691   305.4302   305.5677   305.7006   307.0946   307.2427   
      2    1      30    1.32e-03   290.5065   294.3174   296.1751   297.2325   302.6107   303.6541*  305.0747   305.2708   305.3364   306.8770   
      3    8      39    3.05e-04   290.4856*  294.3113*  296.1617*  297.2242*  302.1004   303.6533*  304.7215   305.0694*  305.3293*  306.8652*  
      4    8      41    1.76e-04   290.4857*  294.3113*  296.1617*  297.2242*  302.0603*  303.6532*  304.5588   305.0694*  305.3293*  306.1923   
      5    9      43    2.70e-05   290.4858*  294.3113*  296.1617*  297.2242*  302.0598*  303.6532*  304.5522*  305.0694*  305.3293*  306.1198   
      6    10     44    1.40e-05   290.4858*  294.3113*  296.1617*  297.2242*  302.0598*  303.6531*  304.5522*  305.0694*  305.3293*  306.1116*  

     Davidson procedure converged

        CVS-EOMEE-CCSD/MP2 right amplitudes will be solved using Davidson.
        Amplitudes will be solved using shifted  algorithm.
     Hard-coded thresholds: 
     LinDepThresh=1.00e-15  NormThresh=1.00e-06  ReorthogonThresh=1.00e-02

      Roots     MaxVec    MaxIter   Precond   Conv      Shift    
      10        1000      200       1         1.00e-04  1.00e+01  
 ------------------------------------------------------------------------------
      Iter ConvRoots NVecs ResNorm Current eigenvalues (eV)
 ------------------------------------------------------------------------------
      0    0      10    1.89e+00   290.4858   294.3113   296.1617   297.2242   302.0598   303.6531   304.5522   305.0694   305.3293   306.1116   
      1    0      20    4.16e+00   288.4447   292.2288   293.9073   294.8586   298.9223   300.5344   301.3142   302.2809   302.5369   303.3464   
      2    0      30    8.00e-02   281.8774   285.8579   286.8817   287.3234   288.4166   289.2583   289.5581   291.7343   292.0204   292.8197   
      3    0      40    1.84e-02   281.4278   285.1798   286.1685   286.5922   287.7800   288.6135   288.9915   291.2402   291.5115   292.3294   
      4    0      50    3.93e-03   281.3767   285.0509   285.9872   286.4143   287.6474   288.4893   288.9180   291.1822   291.4356   292.2672   
      5    0      60    1.93e-03   281.3700   285.0293   285.9292   286.3729   287.5988   288.4460   288.8914   291.1535   291.3951   292.2294   
      6    1      70    6.83e-04   281.3676*  285.0177   285.9129   286.3607   287.5808   288.4340   288.8820   291.1300   291.3685   292.1997   
      7    2      79    4.92e-04   281.3675*  285.0120   285.9036   286.3511   287.5746   288.4285   288.8808*  291.1084   291.3426   292.1762   
      8    7      87    1.49e-04   281.3675*  285.0119*  285.9039*  286.3505*  287.5733*  288.4270*  288.8808*  291.1023   291.3345   292.1679   
      9    7      90    1.14e-04   281.3675*  285.0119*  285.9039*  286.3506*  287.5733*  288.4270*  288.8808*  291.0974   291.3288   292.1629   
      10   8      93    6.92e-05   281.3675*  285.0118*  285.9039*  286.3505*  287.5733*  288.4270*  288.8808*  291.0951*  291.3253   292.1597   
      11   8      95    8.39e-05   281.3675*  285.0118*  285.9039*  286.3505*  287.5733*  288.4270*  288.8808*  291.0951*  291.3238   292.1566   
      12   9      97    1.17e-04   281.3675*  285.0117*  285.9039*  286.3505*  287.5733*  288.4270*  288.8808*  291.0951*  291.3208*  292.1477   
      13   9      98    2.87e-04   281.3675*  285.0117*  285.9039*  286.3505*  287.5733*  288.4270*  288.8808*  291.0951*  291.3208*  292.1293   
      14   9      99    2.34e-04   281.3675*  285.0116*  285.9039*  286.3505*  287.5733*  288.4270*  288.8808*  291.0951*  291.3208*  292.0910   
      15   9      100   1.68e-04   281.3675*  285.0116*  285.9039*  286.3505*  287.5733*  288.4270*  288.8808*  291.0951*  291.3208*  292.0672   
      16   9      101   8.73e-05   281.3675*  285.0116*  285.9039*  286.3505*  287.5733*  288.4270*  288.8808*  291.0950*  291.3208*  292.0557   
      17   9      102   6.97e-05   281.3675*  285.0116*  285.9039*  286.3505*  287.5733*  288.4270*  288.8808*  291.0950*  291.3208*  292.0498   
      18   9      103   5.98e-05   281.3675*  285.0116*  285.9039*  286.3505*  287.5733*  288.4269*  288.8808*  291.0949*  291.3208*  292.0464   
      19   9      104   5.42e-05   281.3675*  285.0116*  285.9039*  286.3505*  287.5733*  288.4269*  288.8808*  291.0948*  291.3208*  292.0448   
      20   10     105   4.76e-05   281.3675*  285.0116*  285.9039*  286.3505*  287.5733*  288.4270*  288.8808*  291.0946*  291.3208*  292.0431*  

     Davidson procedure converged

 EOMEE transition 1/B1u
 Total energy = -220.94699615 a.u.  Excitation energy = 281.3675 eV.
 R0^2 = 0.0000  R1^2 = 0.8573  R2_CCVV^2 = 0.0018  R2_COVV^2 = 0.0704  Res^2 = 2.78e-05
 Conv-d = yes

 Amplitude    Transitions between orbitals
  0.8279       1 (B2u) B                 ->    1 (B3g) B                  
 -0.1840       1 (B1g) B                 ->    1 (Au) B                   
  0.1563       1 (Ag) B                  ->    3 (B1u) B                  
  0.1145       1 (B3u) B                 ->    6 (B2g) B                  
 -0.1104       1 (B2u) B                 ->    3 (B3g) B                  
  0.1011       1 (B2u) B                 ->    4 (B3g) B                  

              Summary of significant orbitals:

               Number  Type             Irrep      Energy
               1       Occ  Beta        1 (Ag)    -11.4869
               4       Occ  Beta        1 (B1g)    -11.4858
               2       Occ  Beta        1 (B2u)    -11.4869
               3       Occ  Beta        1 (B3u)    -11.4858
               72      Vir  Beta        6 (B2g)      0.1954
               21      Vir  Beta        1 (B3g)     -0.2490
               52      Vir  Beta        3 (B3g)      0.0506
               92      Vir  Beta        4 (B3g)      0.5956
               32      Vir  Beta        1 (Au)     -0.0451
               26      Vir  Beta        3 (B1u)     -0.0590


 EOMEE transition 2/B1u
 Total energy = -220.81307776 a.u.  Excitation energy = 285.0116 eV.
 R0^2 = 0.0000  R1^2 = 0.8649  R2_CCVV^2 = 0.0018  R2_COVV^2 = 0.0667  Res^2 = 7.29e-06
 Conv-d = yes

 Amplitude    Transitions between orbitals
  0.7131       2 (Ag) A                  ->    2 (B1u) A                  
 -0.2365       2 (B3u) A                 ->    6 (B2g) A                  
  0.2170       2 (B3u) A                 ->    5 (B2g) A                  
 -0.2099       2 (Ag) B                  ->    3 (B1u) B                  
 -0.2026       2 (Ag) A                  ->    6 (B1u) A                  
 -0.1797       2 (Ag) A                  ->    3 (B1u) A                  
  0.1723       2 (Ag) B                  ->    2 (B1u) B                  
 -0.1484       2 (Ag) A                  ->    8 (B1u) A                  
 -0.1224       2 (Ag) A                  ->    4 (B1u) A                  
  0.1064       2 (B3u) A                 ->    8 (B2g) A                  
  0.1034       2 (B3u) B                 ->    6 (B2g) B                  

              Summary of significant orbitals:

               Number  Type             Irrep      Energy
               6       Occ  Alpha       2 (Ag)    -11.4422
               5       Occ  Alpha       2 (B3u)    -11.4422
               6       Occ  Beta        2 (Ag)    -11.4490
               5       Occ  Beta        2 (B3u)    -11.4491
               55      Vir  Alpha       5 (B2g)      0.0785
               70      Vir  Alpha       6 (B2g)      0.1687
               96      Vir  Alpha       8 (B2g)      0.6899
               24      Vir  Alpha       2 (B1u)     -0.0824
               27      Vir  Alpha       3 (B1u)     -0.0676
               39      Vir  Alpha       4 (B1u)     -0.0217
               59      Vir  Alpha       6 (B1u)      0.0950
               95      Vir  Alpha       8 (B1u)      0.6419
               72      Vir  Beta        6 (B2g)      0.1954
               24      Vir  Beta        2 (B1u)     -0.0715
               26      Vir  Beta        3 (B1u)     -0.0590


 EOMEE transition 3/B1u
 Total energy = -220.78028826 a.u.  Excitation energy = 285.9039 eV.
 R0^2 = 0.0000  R1^2 = 0.8381  R2_CCVV^2 = 0.0018  R2_COVV^2 = 0.0801  Res^2 = 2.87e-05
 Conv-d = yes

 Amplitude    Transitions between orbitals
 -0.7602       1 (B1g) A                 ->    1 (Au) A                   
  0.2831       1 (Ag) A                  ->    2 (B1u) A                  
 -0.1894       1 (B3u) A                 ->    6 (B2g) A                  
  0.1666       1 (B3u) A                 ->    5 (B2g) A                  
 -0.1488       1 (B2u) B                 ->    1 (B3g) B                  
 -0.1262       1 (B1g) A                 ->    3 (Au) A                   
  0.1053       1 (B1g) A                 ->    4 (Au) A                   

              Summary of significant orbitals:

               Number  Type             Irrep      Energy
               2       Occ  Alpha       1 (Ag)    -11.4950
               4       Occ  Alpha       1 (B1g)    -11.4938
               3       Occ  Alpha       1 (B3u)    -11.4938
               2       Occ  Beta        1 (B2u)    -11.4869
               55      Vir  Alpha       5 (B2g)      0.0785
               70      Vir  Alpha       6 (B2g)      0.1687
               22      Vir  Alpha       1 (Au)     -0.1349
               57      Vir  Alpha       3 (Au)      0.0863
               94      Vir  Alpha       4 (Au)      0.6110
               24      Vir  Alpha       2 (B1u)     -0.0824
               21      Vir  Beta        1 (B3g)     -0.2490


 EOMEE transition 4/B1u
 Total energy = -220.76387403 a.u.  Excitation energy = 286.3505 eV.
 R0^2 = 0.0000  R1^2 = 0.8306  R2_CCVV^2 = 0.0018  R2_COVV^2 = 0.0838  Res^2 = 2.85e-05
 Conv-d = yes

 Amplitude    Transitions between orbitals
 -0.5861       2 (Ag) B                  ->    3 (B1u) B                  
  0.4594       2 (Ag) B                  ->    2 (B1u) B                  
 -0.2689       2 (Ag) A                  ->    2 (B1u) A                  
  0.2255       2 (B3u) B                 ->    6 (B2g) B                  
  0.2152       2 (Ag) B                  ->    6 (B1u) B                  
 -0.1789       2 (Ag) B                  ->    4 (B1u) B                  
 -0.1458       2 (B3u) B                 ->    5 (B2g) B                  
  0.1144       2 (Ag) B                  ->    8 (B1u) B                  

              Summary of significant orbitals:

               Number  Type             Irrep      Energy
               6       Occ  Alpha       2 (Ag)    -11.4422
               6       Occ  Beta        2 (Ag)    -11.4490
               5       Occ  Beta        2 (B3u)    -11.4491
               24      Vir  Alpha       2 (B1u)     -0.0824
               57      Vir  Beta        5 (B2g)      0.0895
               72      Vir  Beta        6 (B2g)      0.1954
               24      Vir  Beta        2 (B1u)     -0.0715
               26      Vir  Beta        3 (B1u)     -0.0590
               38      Vir  Beta        4 (B1u)     -0.0208
               58      Vir  Beta        6 (B1u)      0.0968
               94      Vir  Beta        8 (B1u)      0.6373


 EOMEE transition 5/B1u
 Total energy = -220.71893589 a.u.  Excitation energy = 287.5733 eV.
 R0^2 = 0.0000  R1^2 = 0.8087  R2_CCVV^2 = 0.0017  R2_COVV^2 = 0.0948  Res^2 = 3.70e-05
 Conv-d = yes

 Amplitude    Transitions between orbitals
 -0.5855       1 (B1g) B                 ->    1 (Au) B                   
  0.2828       1 (B1g) B                 ->    2 (Au) B                   
 -0.2809       1 (B2u) B                 ->    1 (B3g) B                  
  0.2582       1 (Ag) B                  ->    3 (B1u) B                  
  0.2320       1 (B1g) B                 ->    3 (Au) B                   
  0.2142       1 (B3u) B                 ->    6 (B2g) B                  
  0.2033       1 (B1g) A                 ->    1 (Au) A                   
 -0.1637       1 (Ag) B                  ->    2 (B1u) B                  
 -0.1460       1 (B3u) B                 ->    5 (B2g) B                  
 -0.1134       1 (B1g) B                 ->    4 (Au) B                   

              Summary of significant orbitals:

               Number  Type             Irrep      Energy
               4       Occ  Alpha       1 (B1g)    -11.4938
               1       Occ  Beta        1 (Ag)    -11.4869
               4       Occ  Beta        1 (B1g)    -11.4858
               2       Occ  Beta        1 (B2u)    -11.4869
               3       Occ  Beta        1 (B3u)    -11.4858
               22      Vir  Alpha       1 (Au)     -0.1349
               57      Vir  Beta        5 (B2g)      0.0895
               72      Vir  Beta        6 (B2g)      0.1954
               21      Vir  Beta        1 (B3g)     -0.2490
               32      Vir  Beta        1 (Au)     -0.0451
               39      Vir  Beta        2 (Au)     -0.0178
               60      Vir  Beta        3 (Au)      0.1031
               95      Vir  Beta        4 (Au)      0.6458
               24      Vir  Beta        2 (B1u)     -0.0715
               26      Vir  Beta        3 (B1u)     -0.0590


 EOMEE transition 6/B1u
 Total energy = -220.68756631 a.u.  Excitation energy = 288.4269 eV.
 R0^2 = 0.0000  R1^2 = 0.7586  R2_CCVV^2 = 0.0016  R2_COVV^2 = 0.1199  Res^2 = 8.15e-05
 Conv-d = yes

 Amplitude    Transitions between orbitals
  0.7560       1 (Ag) A                  ->    2 (B1u) A                  
  0.3167       1 (B1g) A                 ->    1 (Au) A                   
 -0.1497       1 (Ag) A                  ->    6 (B1u) A                  
 -0.1468       1 (Ag) A                  ->    3 (B1u) A                  
 -0.1118       1 (Ag) A                  ->    4 (B1u) A                  

              Summary of significant orbitals:

               Number  Type             Irrep      Energy
               2       Occ  Alpha       1 (Ag)    -11.4950
               4       Occ  Alpha       1 (B1g)    -11.4938
               22      Vir  Alpha       1 (Au)     -0.1349
               24      Vir  Alpha       2 (B1u)     -0.0824
               27      Vir  Alpha       3 (B1u)     -0.0676
               39      Vir  Alpha       4 (B1u)     -0.0217
               59      Vir  Alpha       6 (B1u)      0.0950


 EOMEE transition 7/B1u
 Total energy = -220.67088774 a.u.  Excitation energy = 288.8808 eV.
 R0^2 = 0.0000  R1^2 = 0.7731  R2_CCVV^2 = 0.0016  R2_COVV^2 = 0.1127  Res^2 = 5.13e-05
 Conv-d = yes

 Amplitude    Transitions between orbitals
  0.5642       1 (Ag) B                  ->    3 (B1u) B                  
 -0.4204       1 (Ag) B                  ->    2 (B1u) B                  
  0.3990       1 (B1g) B                 ->    1 (Au) B                   
 -0.1831       1 (B1g) B                 ->    2 (Au) B                   
 -0.1519       1 (Ag) B                  ->    6 (B1u) B                  
  0.1492       1 (Ag) B                  ->    4 (B1u) B                  
 -0.1277       1 (B1g) B                 ->    3 (Au) B                   

              Summary of significant orbitals:

               Number  Type             Irrep      Energy
               1       Occ  Beta        1 (Ag)    -11.4869
               4       Occ  Beta        1 (B1g)    -11.4858
               32      Vir  Beta        1 (Au)     -0.0451
               39      Vir  Beta        2 (Au)     -0.0178
               60      Vir  Beta        3 (Au)      0.1031
               24      Vir  Beta        2 (B1u)     -0.0715
               26      Vir  Beta        3 (B1u)     -0.0590
               38      Vir  Beta        4 (B1u)     -0.0208
               58      Vir  Beta        6 (B1u)      0.0968


 EOMEE transition 8/B1u
 Total energy = -220.58953166 a.u.  Excitation energy = 291.0946 eV.
 R0^2 = 0.0000  R1^2 = 0.8086  R2_CCVV^2 = 0.0017  R2_COVV^2 = 0.0949  Res^2 = 8.84e-05
 Conv-d = yes

 Amplitude    Transitions between orbitals
  0.6401       2 (Ag) A                  ->    3 (B1u) A                  
  0.4015       2 (Ag) A                  ->    5 (B1u) A                  
  0.2995       2 (Ag) A                  ->    2 (B1u) A                  
  0.2411       2 (B3u) A                 ->    2 (B2g) A                  
  0.2076       2 (B3u) A                 ->    4 (B2g) A                  

              Summary of significant orbitals:

               Number  Type             Irrep      Energy
               6       Occ  Alpha       2 (Ag)    -11.4422
               5       Occ  Alpha       2 (B3u)    -11.4422
               32      Vir  Alpha       2 (B2g)     -0.0453
               51      Vir  Alpha       4 (B2g)      0.0476
               24      Vir  Alpha       2 (B1u)     -0.0824
               27      Vir  Alpha       3 (B1u)     -0.0676
               47      Vir  Alpha       5 (B1u)      0.0239


 EOMEE transition 9/B1u
 Total energy = -220.58121990 a.u.  Excitation energy = 291.3208 eV.
 R0^2 = 0.0000  R1^2 = 0.8038  R2_CCVV^2 = 0.0017  R2_COVV^2 = 0.0973  Res^2 = 6.69e-05
 Conv-d = yes

 Amplitude    Transitions between orbitals
  0.5175       2 (Ag) B                  ->    2 (B1u) B                  
  0.4674       2 (Ag) B                  ->    3 (B1u) B                  
  0.4206       2 (Ag) B                  ->    5 (B1u) B                  
  0.2490       2 (B3u) B                 ->    2 (B2g) B                  
  0.2258       2 (B3u) B                 ->    4 (B2g) B                  
  0.1024       2 (Ag) A                  ->    3 (B1u) A                  

              Summary of significant orbitals:

               Number  Type             Irrep      Energy
               6       Occ  Alpha       2 (Ag)    -11.4422
               6       Occ  Beta        2 (Ag)    -11.4490
               5       Occ  Beta        2 (B3u)    -11.4491
               27      Vir  Alpha       3 (B1u)     -0.0676
               31      Vir  Beta        2 (B2g)     -0.0454
               50      Vir  Beta        4 (B2g)      0.0470
               24      Vir  Beta        2 (B1u)     -0.0715
               26      Vir  Beta        3 (B1u)     -0.0590
               48      Vir  Beta        5 (B1u)      0.0291


 EOMEE transition 10/B1u
 Total energy = -220.55467514 a.u.  Excitation energy = 292.0431 eV.
 R0^2 = 0.0000  R1^2 = 0.7873  R2_CCVV^2 = 0.0017  R2_COVV^2 = 0.1055  Res^2 = 5.86e-05
 Conv-d = yes

 Amplitude    Transitions between orbitals
 -0.6063       2 (B3u) A                 ->    5 (B2g) A                  
  0.4759       2 (B3u) A                 ->    6 (B2g) A                  
  0.2885       2 (Ag) A                  ->    2 (B1u) A                  
 -0.2353       2 (Ag) A                  ->    3 (B1u) A                  
  0.1055       2 (Ag) B                  ->    2 (B1u) B                  
 -0.1020       2 (B3u) A                 ->    8 (B2g) A                  

              Summary of significant orbitals:

               Number  Type             Irrep      Energy
               6       Occ  Alpha       2 (Ag)    -11.4422
               5       Occ  Alpha       2 (B3u)    -11.4422
               6       Occ  Beta        2 (Ag)    -11.4490
               55      Vir  Alpha       5 (B2g)      0.0785
               70      Vir  Alpha       6 (B2g)      0.1687
               96      Vir  Alpha       8 (B2g)      0.6899
               24      Vir  Alpha       2 (B1u)     -0.0824
               27      Vir  Alpha       3 (B1u)     -0.0676
               24      Vir  Beta        2 (B1u)     -0.0715


      CVS-EOM-CCSD/MP2 left amplitudes will be solved using Davidson.
        Amplitudes will be solved using MOM  algorithm.
     Hard-coded thresholds: 
     LinDepThresh=1.00e-15  NormThresh=1.00e-06  ReorthogonThresh=1.00e-02

      Roots     MaxVec    MaxIter   Precond   Conv      Shift    
      10        1000      200       1         1.00e-04  1.00e+01  
 ------------------------------------------------------------------------------
      Iter ConvRoots NVecs ResNorm Current eigenvalues (eV)
 ------------------------------------------------------------------------------
      0    0      10    2.46e-02   281.3675   285.0116   285.9039   286.3505   287.5733   288.4270   288.8808   291.0946   291.3208   292.0431   
      1    0      20    4.70e+00   281.3672   285.0115   285.9034   286.3501   287.5731   288.4259   288.8802   291.0939   291.3206   292.0426   
      2    0      30    6.11e-02   281.3674   285.0115   285.9036   286.3502   287.5733   288.4261   288.8805   291.0944   291.3210   292.0429   
Found complex roots...
      3    0      40    1.12e-03   281.3673   285.0115   285.9036   286.3501   287.5732   288.4258   288.8805   291.0941   291.3207   292.0427   
      4    0      50    1.24e-03   281.3673   285.0115   285.9038   286.3501   287.5733   288.4258   288.8806   291.0939   291.3208   292.0427   
Found complex roots...
      5    7      60    1.07e-04   281.3673*  285.0115*  285.9038*  286.3500*  287.5733*  288.4257   288.8806*  291.0937   291.3207   292.0426*  
Found complex roots...
      6    7      63    9.84e-05   281.3673*  285.0115*  285.9038*  286.3500*  287.5733*  288.4256   288.8806*  291.0932   291.3206   292.0426*  
Found complex roots...
      7    7      66    1.36e-04   281.3673*  285.0115*  285.9038*  286.3500*  287.5733*  288.4256*  288.8806*  291.0929   291.3204   292.0425   
Found complex roots...
      8    9      69    9.41e-05   281.3673*  285.0115*  285.9038*  286.3500*  287.5733*  288.4256*  288.8806*  291.0927*  291.3202*  292.0424   
Found complex roots...
      9    9      70    1.11e-04   281.3673*  285.0115*  285.9038*  286.3500*  287.5733*  288.4256*  288.8806*  291.0927*  291.3202*  292.0422   
Found complex roots...
      10   9      71    9.12e-05   281.3673*  285.0115*  285.9038*  286.3500*  287.5733*  288.4256*  288.8806*  291.0926*  291.3202*  292.0420   
Found complex roots...
      11   9      72    8.07e-05   281.3673*  285.0115*  285.9038*  286.3500*  287.5733*  288.4256*  288.8806*  291.0926*  291.3202*  292.0418   
Found complex roots...
      12   10     73    6.16e-05   281.3673*  285.0115*  285.9038*  286.3500*  287.5733*  288.4256*  288.8806*  291.0926*  291.3202*  292.0417*  

     Davidson procedure converged

 Excited state properties for  CVS-EOMEE-CCSD transition 1/B1u
 Dipole moment (a.u.): 0.000973 (X 0.000000, Y 0.000973, Z 0.000000)
 R-squared (a.u.): 437.236945 (XX 205.951553, YY 203.600825, ZZ 27.684568)

State OPDM analysis using libwa module will be excecuted
Created directory /work1/malop/qc_7505171.hnode2/plots
 NOs (alpha)
   Occupation of frontier NOs:
      0.0080   0.0092   0.0099   0.0267   0.9765   0.9895   0.9901   0.9909
   Number of electrons: 21.000000
 NOs (beta)
   Occupation of frontier NOs:
      0.0217   0.0427   0.0703   0.2816   0.8219   0.8962   0.9026   0.9353
   Number of electrons: 20.000000
 NOs (spin-traced)
   Occupation of frontier NOs:
      0.0132   0.0426   0.0794   0.0965   1.2794   1.7983   1.8930   1.8948
   Number of electrons: 41.000000
   Number of unpaired electrons: n_u =  1.67751, n_u,nl =  1.15486
   NO participation ratio (PR_NO):  4.632397
 
 Mulliken Population Analysis
 Atom      Charge (e)        Spin (e)
 ------------------------------------
  1 H        0.264775       -0.010824
  2 C       -0.128247        0.255820
  3 C       -0.110920       -0.393369
  4 H        0.292819        0.020704
  5 C       -0.111029       -0.393245
  6 H        0.292816        0.020703
  7 C       -0.128247        0.255820
  8 H        0.264775       -0.010824
  9 C       -0.111134       -0.393159
 10 H        0.292819        0.020704
 11 C       -0.111243       -0.393034
 12 H        0.292816        0.020703
 ------------------------------------
 Sum:        1.000000       -1.000000
 

 Excited state properties for  CVS-EOMEE-CCSD transition 2/B1u
 Dipole moment (a.u.): 0.000005 (X 0.000005, Y 0.000000, Z 0.000000)
 R-squared (a.u.): 438.082109 (XX 205.563067, YY 204.903895, ZZ 27.615148)

State OPDM analysis using libwa module will be excecuted
 NOs (alpha)
   Occupation of frontier NOs:
      0.0047   0.0063   0.1406   0.3234   0.7288   0.8003   0.9925   0.9942
   Number of electrons: 21.000000
 NOs (beta)
   Occupation of frontier NOs:
      0.0060   0.0155   0.0801   0.9063   0.9689   0.9934   0.9935   0.9946
   Number of electrons: 20.000000
 NOs (spin-traced)
   Occupation of frontier NOs:
      0.0130   0.1631   0.8223   0.9992   1.2297   1.7691   1.9755   1.9873
   Number of electrons: 41.000000
   Number of unpaired electrons: n_u =  3.17426, n_u,nl =  3.09986
   NO participation ratio (PR_NO):  4.287913
 
 Mulliken Population Analysis
 Atom      Charge (e)        Spin (e)
 ------------------------------------
  1 H        0.283764       -0.002898
  2 C       -0.242542        0.412911
  3 C       -0.057061       -0.482666
  4 H        0.286449        0.027641
  5 C       -0.057058       -0.482628
  6 H        0.286449        0.027640
  7 C       -0.242544        0.412910
  8 H        0.283764       -0.002898
  9 C       -0.057061       -0.482665
 10 H        0.286449        0.027641
 11 C       -0.057058       -0.482628
 12 H        0.286449        0.027640
 ------------------------------------
 Sum:        1.000000       -1.000000
 

 Excited state properties for  CVS-EOMEE-CCSD transition 3/B1u
 Dipole moment (a.u.): 0.000750 (X 0.000000, Y 0.000750, Z 0.000000)
 R-squared (a.u.): 438.211359 (XX 206.979599, YY 203.516496, ZZ 27.715264)

State OPDM analysis using libwa module will be excecuted
 NOs (alpha)
   Occupation of frontier NOs:
      0.0107   0.0880   0.1099   0.3730   0.7263   0.8693   0.8793   0.9476
   Number of electrons: 21.000000
 NOs (beta)
   Occupation of frontier NOs:
      0.0087   0.0088   0.0313   0.0509   0.9726   0.9769   0.9868   0.9892
   Number of electrons: 20.000000
 NOs (spin-traced)
   Occupation of frontier NOs:
      0.0156   0.1044   0.1254   0.7566   1.0389   1.3499   1.8594   1.8693
   Number of electrons: 41.000000
   Number of unpaired electrons: n_u =  3.25535, n_u,nl =  2.91561
   NO participation ratio (PR_NO):  5.317265
 
 Mulliken Population Analysis
 Atom      Charge (e)        Spin (e)
 ------------------------------------
  1 H        0.261543       -0.007561
  2 C       -0.163094        0.161178
  3 C       -0.095993       -0.355824
  4 H        0.296794        0.029020
  5 C       -0.095876       -0.355685
  6 H        0.296791        0.029020
  7 C       -0.163094        0.161178
  8 H        0.261543       -0.007561
  9 C       -0.096158       -0.355971
 10 H        0.296794        0.029020
 11 C       -0.096041       -0.355832
 12 H        0.296791        0.029020
 ------------------------------------
 Sum:        1.000000       -1.000000
 

 Excited state properties for  CVS-EOMEE-CCSD transition 4/B1u
 Dipole moment (a.u.): 0.000006 (X 0.000006, Y 0.000000, Z 0.000000)
 R-squared (a.u.): 438.587378 (XX 205.252062, YY 205.510971, ZZ 27.824345)

State OPDM analysis using libwa module will be excecuted
 NOs (alpha)
   Occupation of frontier NOs:
      0.0070   0.0070   0.0193   0.1377   0.9003   0.9683   0.9740   0.9906
   Number of electrons: 21.000000
 NOs (beta)
   Occupation of frontier NOs:
      0.0057   0.0110   0.0901   0.2995   0.7593   0.8255   0.9945   0.9948
   Number of electrons: 20.000000
 NOs (spin-traced)
   Occupation of frontier NOs:
      0.0114   0.0119   0.1156   0.9050   1.0011   1.1998   1.7994   1.9619
   Number of electrons: 41.000000
   Number of unpaired electrons: n_u =  3.24857, n_u,nl =  3.09418
   NO participation ratio (PR_NO):  4.197962
 
 Mulliken Population Analysis
 Atom      Charge (e)        Spin (e)
 ------------------------------------
  1 H        0.283662       -0.010874
  2 C       -0.196399       -0.010397
  3 C       -0.079433       -0.259680
  4 H        0.285801        0.020293
  5 C       -0.079432       -0.259635
  6 H        0.285801        0.020292
  7 C       -0.196401       -0.010395
  8 H        0.283662       -0.010874
  9 C       -0.079433       -0.259680
 10 H        0.285801        0.020293
 11 C       -0.079432       -0.259635
 12 H        0.285801        0.020292
 ------------------------------------
 Sum:        1.000000       -1.000000
 

 Excited state properties for  CVS-EOMEE-CCSD transition 5/B1u
 Dipole moment (a.u.): 0.000380 (X 0.000000, Y 0.000380, Z 0.000000)
 R-squared (a.u.): 438.840503 (XX 207.135533, YY 203.776480, ZZ 27.928490)

State OPDM analysis using libwa module will be excecuted
 NOs (alpha)
   Occupation of frontier NOs:
      0.0097   0.0111   0.0130   0.0820   0.9570   0.9571   0.9863   0.9882
   Number of electrons: 21.000000
 NOs (beta)
   Occupation of frontier NOs:
      0.0838   0.1390   0.1412   0.4916   0.5668   0.8249   0.8618   0.8789
   Number of electrons: 20.000000
 NOs (spin-traced)
   Occupation of frontier NOs:
      0.0161   0.1078   0.1810   0.6478   1.0916   1.4486   1.8193   1.8577
   Number of electrons: 41.000000
   Number of unpaired electrons: n_u =  3.17424, n_u,nl =  2.79431
   NO participation ratio (PR_NO):  6.041611
 
 Mulliken Population Analysis
 Atom      Charge (e)        Spin (e)
 ------------------------------------
  1 H        0.262570       -0.012399
  2 C       -0.166315        0.332121
  3 C       -0.093925       -0.429170
  4 H        0.295813        0.019289
  5 C       -0.093869       -0.429195
  6 H        0.295810        0.019289
  7 C       -0.166315        0.332121
  8 H        0.262570       -0.012399
  9 C       -0.094009       -0.429105
 10 H        0.295813        0.019289
 11 C       -0.093953       -0.429130
 12 H        0.295810        0.019289
 ------------------------------------
 Sum:        1.000000       -1.000000
 

 Excited state properties for  CVS-EOMEE-CCSD transition 6/B1u
 Dipole moment (a.u.): 0.001317 (X 0.000000, Y 0.001317, Z 0.000000)
 R-squared (a.u.): 439.418193 (XX 208.905776, YY 202.489745, ZZ 28.022672)

State OPDM analysis using libwa module will be excecuted
 NOs (alpha)
   Occupation of frontier NOs:
      0.0060   0.0374   0.1538   0.3330   0.8016   0.8294   0.9254   0.9284
   Number of electrons: 21.000000
 NOs (beta)
   Occupation of frontier NOs:
      0.0092   0.0096   0.0306   0.0455   0.9540   0.9651   0.9889   0.9901
   Number of electrons: 20.000000
 NOs (spin-traced)
   Occupation of frontier NOs:
      0.0150   0.0497   0.1801   0.8156   1.0244   1.3231   1.8269   1.9227
   Number of electrons: 41.000000
   Number of unpaired electrons: n_u =  3.39206, n_u,nl =  3.02764
   NO participation ratio (PR_NO):  5.325776
 
 Mulliken Population Analysis
 Atom      Charge (e)        Spin (e)
 ------------------------------------
  1 H        0.261107        0.005233
  2 C       -0.326195       -0.151504
  3 C       -0.013663       -0.199886
  4 H        0.296410        0.023212
  5 C       -0.013777       -0.199973
  6 H        0.296407        0.023212
  7 C       -0.326195       -0.151504
  8 H        0.261107        0.005233
  9 C       -0.013952       -0.200179
 10 H        0.296410        0.023212
 11 C       -0.014066       -0.200267
 12 H        0.296407        0.023212
 ------------------------------------
 Sum:        1.000000       -1.000000
 

 Excited state properties for  CVS-EOMEE-CCSD transition 7/B1u
 Dipole moment (a.u.): 0.000625 (X 0.000000, Y -0.000625, Z 0.000000)
 R-squared (a.u.): 439.747013 (XX 208.138887, YY 203.431723, ZZ 28.176403)

State OPDM analysis using libwa module will be excecuted
 NOs (alpha)
   Occupation of frontier NOs:
      0.0103   0.0130   0.0156   0.0422   0.9646   0.9751   0.9849   0.9874
   Number of electrons: 21.000000
 NOs (beta)
   Occupation of frontier NOs:
      0.0075   0.0471   0.2450   0.3836   0.7095   0.7540   0.9296   0.9449
   Number of electrons: 20.000000
 NOs (spin-traced)
   Occupation of frontier NOs:
      0.0166   0.0337   0.2817   0.7264   1.0110   1.3768   1.7511   1.9276
   Number of electrons: 41.000000
   Number of unpaired electrons: n_u =  3.40495, n_u,nl =  3.08247
   NO participation ratio (PR_NO):  5.647671
 
 Mulliken Population Analysis
 Atom      Charge (e)        Spin (e)
 ------------------------------------
  1 H        0.264439       -0.019880
  2 C       -0.247132        0.461190
  3 C       -0.053606       -0.492591
  4 H        0.294920        0.021969
  5 C       -0.053676       -0.492515
  6 H        0.294917        0.021968
  7 C       -0.247132        0.461190
  8 H        0.264439       -0.019880
  9 C       -0.053469       -0.492733
 10 H        0.294920        0.021969
 11 C       -0.053539       -0.492657
 12 H        0.294917        0.021968
 ------------------------------------
 Sum:        1.000000       -1.000000
 

 Excited state properties for  CVS-EOMEE-CCSD transition 8/B1u
 Dipole moment (a.u.): 0.000005 (X 0.000005, Y 0.000000, Z 0.000000)
 R-squared (a.u.): 473.082909 (XX 212.841807, YY 208.809895, ZZ 51.431207)

State OPDM analysis using libwa module will be excecuted
 NOs (alpha)
   Occupation of frontier NOs:
      0.0050   0.0231   0.1441   0.2437   0.7757   0.8393   0.9734   0.9940
   Number of electrons: 21.000000
 NOs (beta)
   Occupation of frontier NOs:
      0.0072   0.0082   0.0154   0.9868   0.9913   0.9920   0.9924   0.9926
   Number of electrons: 20.000000
 NOs (spin-traced)
   Occupation of frontier NOs:
      0.0123   0.0434   0.1496   0.8491   0.9985   1.2306   1.7683   1.9524
   Number of electrons: 41.000000
   Number of unpaired electrons: n_u =  3.25879, n_u,nl =  3.11837
   NO participation ratio (PR_NO):  4.440075
 
 Mulliken Population Analysis
 Atom      Charge (e)        Spin (e)
 ------------------------------------
  1 H        0.301224       -0.014059
  2 C       -0.370781        0.425629
  3 C       -0.025330       -0.480192
  4 H        0.310107        0.024390
  5 C       -0.025326       -0.480158
  6 H        0.310107        0.024390
  7 C       -0.370782        0.425628
  8 H        0.301224       -0.014059
  9 C       -0.025330       -0.480192
 10 H        0.310107        0.024390
 11 C       -0.025327       -0.480157
 12 H        0.310107        0.024390
 ------------------------------------
 Sum:        1.000000       -1.000000
 

 Excited state properties for  CVS-EOMEE-CCSD transition 9/B1u
 Dipole moment (a.u.): 0.000006 (X 0.000006, Y 0.000000, Z 0.000000)
 R-squared (a.u.): 475.239382 (XX 213.687990, YY 208.876365, ZZ 52.675027)

State OPDM analysis using libwa module will be excecuted
 NOs (alpha)
   Occupation of frontier NOs:
      0.0078   0.0100   0.0133   0.0382   0.9635   0.9831   0.9915   0.9918
   Number of electrons: 21.000000
 NOs (beta)
   Occupation of frontier NOs:
      0.0073   0.1407   0.2471   0.7765   0.8448   0.9946   0.9946   0.9956
   Number of electrons: 20.000000
 NOs (spin-traced)
   Occupation of frontier NOs:
      0.0121   0.0396   0.1437   0.8589   0.9984   1.2302   1.7690   1.9534
   Number of electrons: 41.000000
   Number of unpaired electrons: n_u =  3.24684, n_u,nl =  3.11599
   NO participation ratio (PR_NO):  4.380868
 
 Mulliken Population Analysis
 Atom      Charge (e)        Spin (e)
 ------------------------------------
  1 H        0.303025       -0.002540
  2 C       -0.374573        0.109037
  3 C       -0.024870       -0.326340
  4 H        0.310629        0.023081
  5 C       -0.024840       -0.326320
  6 H        0.310629        0.023081
  7 C       -0.374575        0.109039
  8 H        0.303025       -0.002540
  9 C       -0.024870       -0.326339
 10 H        0.310629        0.023081
 11 C       -0.024840       -0.326320
 12 H        0.310629        0.023081
 ------------------------------------
 Sum:        1.000000       -1.000000
 

 Excited state properties for  CVS-EOMEE-CCSD transition 10/B1u
 Dipole moment (a.u.): 0.000004 (X -0.000004, Y 0.000000, Z 0.000000)
 R-squared (a.u.): 445.642878 (XX 206.169952, YY 208.616640, ZZ 30.856286)

State OPDM analysis using libwa module will be excecuted
 NOs (alpha)
   Occupation of frontier NOs:
      0.0123   0.0212   0.2193   0.2886   0.7393   0.7436   0.9773   0.9921
   Number of electrons: 21.000000
 NOs (beta)
   Occupation of frontier NOs:
      0.0090   0.0132   0.0248   0.9738   0.9826   0.9899   0.9900   0.9915
   Number of electrons: 20.000000
 NOs (spin-traced)
   Occupation of frontier NOs:
      0.0161   0.0434   0.2433   0.7328   1.0018   1.2797   1.7222   1.9501
   Number of electrons: 41.000000
   Number of unpaired electrons: n_u =  3.30217, n_u,nl =  3.15046
   NO participation ratio (PR_NO):  4.966270
 
 Mulliken Population Analysis
 Atom      Charge (e)        Spin (e)
 ------------------------------------
  1 H        0.282359       -0.004511
  2 C       -0.073163        0.617431
  3 C       -0.148453       -0.588388
  4 H        0.293854        0.031912
  5 C       -0.148453       -0.588356
  6 H        0.293854        0.031912
  7 C       -0.073161        0.617432
  8 H        0.282359       -0.004511
  9 C       -0.148453       -0.588388
 10 H        0.293854        0.031912
 11 C       -0.148453       -0.588357
 12 H        0.293854        0.031911
 ------------------------------------
 Sum:        1.000000       -1.000000
 

        Solving for CVS-EOMEE-CCSD B2u transitions.

       EOMEE-CCSD-SINGLES right amplitudes will be solved using Davidson.
        Amplitudes will be solved using shifted  algorithm.
     Hard-coded thresholds: 
     LinDepThresh=1.00e-15  NormThresh=1.00e-06  ReorthogonThresh=1.00e-02

      Roots     MaxVec    MaxIter   Precond   Conv      Shift    
      10        1000      200       1         1.00e-04  1.00e+01  
 ------------------------------------------------------------------------------
      Iter ConvRoots NVecs ResNorm Current eigenvalues (eV)
 ------------------------------------------------------------------------------
      0    0      10    2.35e-03   305.9009   306.0444   306.3753   306.4312   307.1346   307.4003   307.4210   307.4931   308.1515   308.3022   
      1    0      20    2.81e-01   305.4263   305.5994   305.9146   306.2459   306.4523   306.7421   307.0085   307.0464   307.7706   308.0344   
      2    0      30    5.59e-02   302.0439   303.7244   304.9558   305.4764   305.6611   305.8146   306.2342   306.6049   306.7031   307.5489   
      3    0      40    7.85e-02   300.9582   302.7304   303.5297   305.2105   305.3241   305.5012   305.9068   306.3760   306.4522   306.5071   
      4    0      50    8.59e-02   300.8029   302.4955   303.3193   304.8168   305.1506   305.4878   305.6139   305.6899   306.4216   306.4490   
      5    0      60    6.37e-02   300.7933   302.4662   303.3050   304.2508   305.1235   305.4338   305.4864   305.6715   305.8114   306.4161   
      6    1      70    2.67e-02   300.7923   302.4617   303.3048   304.1406   305.1226   305.3832   305.4863*  305.6709   305.7310   306.3820   
      7    0      79    5.48e-01   300.7921   302.4609   303.3047   304.0902   305.1223   305.1982   305.4148   305.4863   305.6708   305.7598   
      8    6      89    4.29e-02   300.7921*  302.4608*  303.3047*  303.9843   304.4263   305.1225*  305.3723   305.4863*  305.6707*  305.7353   
      9    6      93    1.07e-03   300.7921*  302.4608*  303.3047*  303.9720   304.4007   305.1225*  305.3719   305.4863*  305.6707*  305.7348   
      10   9      97    3.62e-05   300.7921*  302.4608*  303.3047*  303.9717*  304.3999   305.1225*  305.3719*  305.4863*  305.6707*  305.7347*  
      11   10     98    2.14e-06   300.7921*  302.4608*  303.3047*  303.9717*  304.3999*  305.1225*  305.3719*  305.4863*  305.6707*  305.7347*  

     Davidson procedure converged

        CVS-EOMEE-CCSD/MP2 right amplitudes will be solved using Davidson.
        Amplitudes will be solved using shifted  algorithm.
     Hard-coded thresholds: 
     LinDepThresh=1.00e-15  NormThresh=1.00e-06  ReorthogonThresh=1.00e-02

      Roots     MaxVec    MaxIter   Precond   Conv      Shift    
      10        1000      200       1         1.00e-04  1.00e+01  
 ------------------------------------------------------------------------------
      Iter ConvRoots NVecs ResNorm Current eigenvalues (eV)
 ------------------------------------------------------------------------------
      0    0      10    1.82e+00   300.7921   302.4608   303.3047   303.9717   304.3999   305.1225   305.3719   305.4863   305.6707   305.7347   
      1    0      20    1.55e+01   298.7081   300.2749   301.3628   301.8818   302.3782   302.6108   302.7915   302.8019   303.0185   303.2011   
      2    0      30    2.98e-01   291.0609   291.5775   291.6179   291.8557   292.5038   292.8588   294.3049   294.4029   294.8591   295.5131   
      3    0      40    5.83e-02   290.4154   290.9652   291.1432   291.3770   291.9026   292.1957   293.4538   293.5186   293.9373   294.6383   
      4    0      50    3.97e-02   290.2418   290.8045   291.1090   291.3321   291.7613   292.0116   293.0872   293.1283   293.4800   294.2606   
      5    0      60    1.55e-02   290.1656   290.7289   291.0889   291.3040   291.6775   291.9065   292.6877   292.8909   293.1487   293.9911   
      6    0      70    1.95e-02   290.1337   290.6908   291.0637   291.2763   291.6227   291.8493   292.3555   292.7463   292.9114   293.7849   
      7    0      80    1.26e-02   290.1166   290.6657   291.0425   291.2494   291.5830   291.8019   292.0789   292.5731   292.6360   293.4985   
      8    0      90    9.51e-03   290.1127   290.6582   291.0360   291.2412   291.5711   291.7841   291.9344   292.3181   292.5528   293.2030   
      9    0      100   6.20e-03   290.1109   290.6542   291.0303   291.2347   291.5630   291.7736   291.8589   292.1740   292.5076   293.0515   
      10   1      110   2.90e-03   290.1094*  290.6508   291.0269   291.2298   291.5567   291.7672   291.8118   292.0849   292.4627   292.9218   
      11   2      119   3.30e-03   290.1091*  290.6495   291.0259*  291.2273   291.5532   291.7630   291.7829   292.0387   292.4159   292.7687   
      12   4      127   1.45e-03   290.1090*  290.6489*  291.0255*  291.2261*  291.5501   291.7593   291.7727   292.0233   292.3723   292.6479   
      13   5      133   1.05e-03   290.1089*  290.6487*  291.0251*  291.2254*  291.5494*  291.7583   291.7624   292.0085   292.3422   292.5810   
      14   6      138   4.03e-04   290.1089*  290.6485*  291.0251*  291.2254*  291.5491*  291.7573*  291.7595   292.0045   292.3274   292.5530   
      15   6      142   3.98e-04   290.1089*  290.6485*  291.0250*  291.2253*  291.5486*  291.7567*  291.7575   292.0013   292.3130   292.5340   
      16   8      146   1.88e-04   290.1089*  290.6484*  291.0250*  291.2253*  291.5486*  291.7564*  291.7566*  291.9998*  292.3056   292.5169   
Found complex roots...
      17   8      148   1.90e-04   290.1089*  290.6485*  291.0250*  291.2253*  291.5486*  291.7564*  291.7564*  291.9998*  292.3003   292.5095   
      18   8      150   1.27e-04   290.1089*  290.6485*  291.0250*  291.2253*  291.5485*  291.7563*  291.7566*  291.9998*  292.2944   292.5024   
Found complex roots...
      19   8      152   2.20e-04   290.1089*  290.6484*  291.0250*  291.2253*  291.5484*  291.7563*  291.7563*  291.9997*  292.2888   292.4941   
      20   8      154   3.26e-04   290.1089*  290.6484*  291.0250*  291.2253*  291.5484*  291.7562*  291.7565*  291.9997*  292.2782   292.4857   
Found complex roots...
      21   8      156   5.82e-04   290.1089*  290.6484*  291.0250*  291.2253*  291.5483*  291.7564*  291.7564*  291.9996*  292.2613   292.4633   
      22   8      158   8.43e-04   290.1089*  290.6484*  291.0250*  291.2253*  291.5483*  291.7561*  291.7565*  291.9997*  292.2394   292.4279   
      23   8      160   4.39e-04   290.1089*  290.6484*  291.0250*  291.2253*  291.5484*  291.7561*  291.7565*  291.9995*  292.2183   292.3933   
      24   8      162   3.54e-04   290.1089*  290.6484*  291.0250*  291.2253*  291.5484*  291.7561*  291.7565*  291.9996*  292.1994   292.3738   
      25   8      164   1.91e-04   290.1089*  290.6484*  291.0250*  291.2253*  291.5483*  291.7561*  291.7565*  291.9995*  292.1857   292.3642   
      26   8      166   2.22e-04   290.1088*  290.6484*  291.0250*  291.2253*  291.5484*  291.7561*  291.7565*  291.9996*  292.1767   292.3569   
      27   8      168   2.44e-04   290.1088*  290.6484*  291.0250*  291.2253*  291.5483*  291.7561*  291.7565*  291.9993*  292.1613   292.3498   
      28   8      170   2.36e-04   290.1088*  290.6484*  291.0250*  291.2253*  291.5483*  291.7561*  291.7565*  291.9996*  292.1485   292.3409   
      29   8      172   1.68e-04   290.1088*  290.6484*  291.0250*  291.2253*  291.5483*  291.7561*  291.7565*  291.9993*  292.1366   292.3352   
Found complex roots...
      30   8      174   8.30e-05   290.1088*  290.6484*  291.0250*  291.2253*  291.5483*  291.7561*  291.7565*  291.9995*  292.1300   292.3308   
Found complex roots...
      31   8      176   5.96e-05   290.1088*  290.6484*  291.0250*  291.2253*  291.5483*  291.7561*  291.7565*  291.9994*  292.1277   292.3294   
      32   9      178   4.55e-05   290.1088*  290.6484*  291.0250*  291.2253*  291.5483*  291.7561*  291.7565*  291.9994*  292.1261   292.3284*  
      33   8      179   2.74e-04   290.1088*  290.6484*  291.0250*  291.2253*  291.5483*  291.7561*  291.7565*  291.9994*  292.1233   292.3267   
      34   8      181   5.63e-05   290.1088*  290.6484*  291.0250*  291.2253*  291.5483*  291.7561*  291.7565*  291.9994*  292.1255   292.3280   
Found complex roots...
      35   10     183   2.94e-05   290.1088*  290.6484*  291.0250*  291.2253*  291.5483*  291.7561*  291.7565*  291.9994*  292.1255*  292.3275*  

     Davidson procedure converged

 EOMEE transition 1/B2u
 Total energy = -220.62575809 a.u.  Excitation energy = 290.1088 eV.
 R0^2 = 0.0000  R1^2 = 0.8245  R2_CCVV^2 = 0.0016  R2_COVV^2 = 0.0869  Res^2 = 1.28e-05
 Conv-d = yes

 Amplitude    Transitions between orbitals
 -0.4221       1 (B2u) B                 ->    7 (Ag) B                    
  0.2589       1 (B2u) B                 ->    10 (Ag) B                   
  0.2558       1 (Ag) B                  ->    5 (B2u) B                   
  0.2501       1 (B2u) A                 ->    7 (Ag) A                    
  0.1979       1 (B2u) B                 ->    15 (Ag) B                   
 -0.1613       1 (B2u) A                 ->    10 (Ag) A                   
  0.1602       1 (Ag) A                  ->    5 (B2u) A                   
 -0.1527       1 (B1g) B                 ->    6 (B3u) B                   
 -0.1506       1 (Ag) B                  ->    8 (B2u) B                   
  0.1476       1 (Ag) B                  ->    11 (B2u) B                  
  0.1287       1 (B2u) A                 ->    15 (Ag) A                   
  0.1207       1 (B3u) B                 ->    4 (B1g) B                   
 -0.1116       1 (Ag) B                  ->    7 (B2u) B                   
  0.1030       1 (Ag) A                  ->    11 (B2u) A                  
  0.1011       1 (B3u) B                 ->    6 (B1g) B                   

              Summary of significant orbitals:

               Number  Type             Irrep      Energy
               2       Occ  Alpha       1 (Ag)    -11.4950
               1       Occ  Alpha       1 (B2u)    -11.4950
               1       Occ  Beta        1 (Ag)    -11.4869
               4       Occ  Beta        1 (B1g)    -11.4858
               2       Occ  Beta        1 (B2u)    -11.4869
               3       Occ  Beta        1 (B3u)    -11.4858
               23      Vir  Alpha       7 (Ag)     -0.0895
               36      Vir  Alpha      10 (Ag)     -0.0246
               60      Vir  Alpha      15 (Ag)      0.0970
               25      Vir  Alpha       5 (B2u)     -0.0734
               61      Vir  Alpha      11 (B2u)      0.1049
               22      Vir  Beta        7 (Ag)     -0.0889
               36      Vir  Beta       10 (Ag)     -0.0242
               59      Vir  Beta       15 (Ag)      0.0982
               28      Vir  Beta        4 (B1g)     -0.0518
               45      Vir  Beta        6 (B1g)      0.0036
               23      Vir  Beta        5 (B2u)     -0.0728
               35      Vir  Beta        7 (B2u)     -0.0250
               40      Vir  Beta        8 (B2u)     -0.0091
               61      Vir  Beta       11 (B2u)      0.1077
               25      Vir  Beta        6 (B3u)     -0.0697


 EOMEE transition 2/B2u
 Total energy = -220.60592955 a.u.  Excitation energy = 290.6484 eV.
 R0^2 = 0.0000  R1^2 = 0.8094  R2_CCVV^2 = 0.0017  R2_COVV^2 = 0.0944  Res^2 = 3.44e-06
 Conv-d = yes

 Amplitude    Transitions between orbitals
  0.4682       1 (B2u) A                 ->    7 (Ag) A                    
  0.3391       1 (B2u) B                 ->    7 (Ag) B                    
 -0.2626       1 (B2u) A                 ->    10 (Ag) A                   
  0.2528       1 (Ag) A                  ->    5 (B2u) A                   
  0.1880       1 (B2u) A                 ->    15 (Ag) A                   
 -0.1754       1 (B2u) B                 ->    10 (Ag) B                   
 -0.1633       1 (Ag) B                  ->    5 (B2u) B                   
  0.1581       1 (B1g) A                 ->    6 (B3u) A                   
  0.1386       1 (Ag) A                  ->    8 (B2u) A                   
  0.1351       1 (Ag) A                  ->    11 (B2u) A                  
 -0.1174       1 (B2u) B                 ->    15 (Ag) B                   
 -0.1069       1 (B3u) A                 ->    4 (B1g) A                   
  0.1050       1 (Ag) A                  ->    7 (B2u) A                   
  0.1033       1 (B1g) B                 ->    6 (B3u) B                   

              Summary of significant orbitals:

               Number  Type             Irrep      Energy
               2       Occ  Alpha       1 (Ag)    -11.4950
               4       Occ  Alpha       1 (B1g)    -11.4938
               1       Occ  Alpha       1 (B2u)    -11.4950
               3       Occ  Alpha       1 (B3u)    -11.4938
               1       Occ  Beta        1 (Ag)    -11.4869
               4       Occ  Beta        1 (B1g)    -11.4858
               2       Occ  Beta        1 (B2u)    -11.4869
               23      Vir  Alpha       7 (Ag)     -0.0895
               36      Vir  Alpha      10 (Ag)     -0.0246
               60      Vir  Alpha      15 (Ag)      0.0970
               29      Vir  Alpha       4 (B1g)     -0.0521
               25      Vir  Alpha       5 (B2u)     -0.0734
               35      Vir  Alpha       7 (B2u)     -0.0256
               40      Vir  Alpha       8 (B2u)     -0.0095
               61      Vir  Alpha      11 (B2u)      0.1049
               26      Vir  Alpha       6 (B3u)     -0.0696
               22      Vir  Beta        7 (Ag)     -0.0889
               36      Vir  Beta       10 (Ag)     -0.0242
[...]
   Renormalized S_HE/Z_HE:  0.826489 /  1.773364
 NTOs (beta)
   Leading SVs and ENEs:
        0.6171   0.0862   0.0310   0.0296   0.0076   0.0015   0.0000   0.0000
 E(h) -11.4936 -11.4937 -11.4949 -11.4950 -11.4423 -11.4422  18.7551  60.2257
 E(e)  -0.0378   0.0280   0.1026   0.0882  -0.0247   0.0454  -0.7311  -1.2325
 
   Sum of SVs (Omega):               0.772962
   Participation ratio (PR_NTO):     1.531393
   Entanglement entropy (S_HE):      1.107469
   Nr of entangled states (Z_HE):    2.154672
   Renormalized S_HE/Z_HE:  1.061229 /  2.086708
 
 Atomic CT numbers
   omega =     0.8050 (alpha:     0.0321, beta:     0.7730)
 
 Exciton analysis of the transition density matrix
 Total:
   <r_h> [Ang]:                        [  0.000000,  -0.000373,   0.000000]
   <r_e> [Ang]:                        [  0.000000,  -0.000000,  -0.000000]
   |<r_e - r_h>| [Ang]:                  0.000373
   Hole size [Ang]:                      1.403350
     Cartesian components [Ang]:       [  0.720689,   1.200377,   0.095362]
   Electron size [Ang]:                  3.130770
     Cartesian components [Ang]:       [  1.456869,   1.706164,   2.183634]
   RMS electron-hole separation [Ang]:   3.244257
     Cartesian components [Ang]:       [  1.475810,   1.889401,   2.185715]
   Covariance(r_h, r_e) [Ang^2]:         0.622955
   Correlation coefficient:              0.141788
   Center-of-mass size [Ang]:            1.803955
     Cartesian components [Ang]:       [  0.881150,   1.132913,   1.092857]
 
 Alpha spin:
   <r_h> [Ang]:                        [  0.000000,  -0.000484,   0.000000]
   <r_e> [Ang]:                        [  0.000000,  -0.000000,  -0.000000]
   |<r_e - r_h>| [Ang]:                  0.000484
   Hole size [Ang]:                      1.403372
     Cartesian components [Ang]:       [  0.753884,   1.179828,   0.095477]
   Electron size [Ang]:                  3.171134
     Cartesian components [Ang]:       [  1.575432,   1.608716,   2.232966]
   RMS electron-hole separation [Ang]:   3.356810
     Cartesian components [Ang]:       [  1.682620,   1.855185,   2.235006]
   Covariance(r_h, r_e) [Ang^2]:         0.378686
   Correlation coefficient:              0.085093
   Center-of-mass size [Ang]:            1.787660
     Cartesian components [Ang]:       [  0.904081,   1.062805,   1.117503]
 
 Beta spin:
   <r_h> [Ang]:                        [  0.000000,  -0.000369,   0.000000]
   <r_e> [Ang]:                        [  0.000000,  -0.000000,  -0.000000]
   |<r_e - r_h>| [Ang]:                  0.000369
   Hole size [Ang]:                      1.403349
     Cartesian components [Ang]:       [  0.719278,   1.201222,   0.095357]
   Electron size [Ang]:                  3.129083
     Cartesian components [Ang]:       [  1.451738,   1.710090,   2.181562]
   RMS electron-hole separation [Ang]:   3.239500
     Cartesian components [Ang]:       [  1.466594,   1.890808,   2.183645]
   Covariance(r_h, r_e) [Ang^2]:         0.633095
   Correlation coefficient:              0.144174
   Center-of-mass size [Ang]:            1.804629
     Cartesian components [Ang]:       [  0.880185,   1.135730,   1.091822]

 ------------------------------------------------------------------------------
 State A: ccsd: 0/Ag
 State B: cvs_eomee_ccsd/uhfref: 10/B3u
 Transition dipole moment (a.u.):
   A->B: 0.024203 (X 0.024203, Y -0.000002, Z 0.000000)
   B->A: 0.023388 (X 0.023388, Y -0.000002, Z 0.000000)
 Oscillator strength (a.u.): 0.004046
 Norm of one-particle transition density matrix:
   A->B: 0.895096;   B->A: 0.855753
   ||gamma^AB||*||gamma^BA||: 0.765981

State analysis of transition OPDM (A->B) using libwa module will be excecuted
 NTOs (alpha)
   Leading SVs and ENEs:
        0.6221   0.0874   0.0304   0.0296   0.0002   0.0002   0.0000   0.0000
 E(h) -11.4938 -11.4938 -11.4950 -11.4950 -11.4422 -11.4422  25.5225  16.7895
 E(e)  -0.0350   0.0242   0.1074   0.0821   0.0060  -0.0256  -7.9904  -1.8861
 
   Sum of SVs (Omega):               0.769805
   Participation ratio (PR_NTO):     1.494932
   Entanglement entropy (S_HE):      1.041053
   Nr of entangled states (Z_HE):    2.057729
   Renormalized S_HE/Z_HE:  0.974924 /  1.965538
 NTOs (beta)
   Leading SVs and ENEs:
        0.0226   0.0057   0.0018   0.0013   0.0000   0.0000   0.0000   0.0000
 E(h) -11.4937 -11.4937 -11.4950 -11.4949 -11.4422 -11.4423  36.6182  26.1052
 E(e)  -0.0266  -0.0251   0.0147   0.0625  -0.0364   0.2159  -0.9493  -0.9325
 
   Sum of SVs (Omega):               0.031392
   Participation ratio (PR_NTO):     1.799222
   Entanglement entropy (S_HE):      0.195070
   Nr of entangled states (Z_HE):    1.144780
   Renormalized S_HE/Z_HE:  1.220582 /  2.330408
 
 Atomic CT numbers
   omega =     0.8012 (alpha:     0.7698, beta:     0.0314)
 
 Exciton analysis of the transition density matrix
 Total:
   <r_h> [Ang]:                        [  0.000000,  -0.000393,   0.000000]
   <r_e> [Ang]:                        [  0.000000,  -0.000000,  -0.000000]
   |<r_e - r_h>| [Ang]:                  0.000393
   Hole size [Ang]:                      1.403370
     Cartesian components [Ang]:       [  0.704383,   1.210031,   0.095480]
   Electron size [Ang]:                  3.094171
     Cartesian components [Ang]:       [  1.428642,   1.711493,   2.145616]
   RMS electron-hole separation [Ang]:   3.174663
     Cartesian components [Ang]:       [  1.416298,   1.860054,   2.147740]
   Covariance(r_h, r_e) [Ang^2]:         0.732430
   Correlation coefficient:              0.168674
   Center-of-mass size [Ang]:            1.803344
     Cartesian components [Ang]:       [  0.875850,   1.154011,   1.073870]
 
 Alpha spin:
   <r_h> [Ang]:                        [  0.000000,  -0.000397,   0.000000]
   <r_e> [Ang]:                        [  0.000000,  -0.000000,  -0.000000]
   |<r_e - r_h>| [Ang]:                  0.000397
   Hole size [Ang]:                      1.403371
     Cartesian components [Ang]:       [  0.704293,   1.210084,   0.095485]
   Electron size [Ang]:                  3.085387
     Cartesian components [Ang]:       [  1.423974,   1.690862,   2.152417]
   RMS electron-hole separation [Ang]:   3.176489
     Cartesian components [Ang]:       [  1.415633,   1.855814,   2.154534]
   Covariance(r_h, r_e) [Ang^2]:         0.699492
   Correlation coefficient:              0.161548
   Center-of-mass size [Ang]:            1.794996
     Cartesian components [Ang]:       [  0.872273,   1.140459,   1.077267]
 
 Beta spin:
   <r_h> [Ang]:                        [  0.000000,  -0.000274,   0.000000]
   <r_e> [Ang]:                        [  0.000000,  -0.000000,  -0.000000]
   |<r_e - r_h>| [Ang]:                  0.000274
   Hole size [Ang]:                      1.403349
     Cartesian components [Ang]:       [  0.706586,   1.208732,   0.095354]
   Electron size [Ang]:                  3.302284
     Cartesian components [Ang]:       [  1.538703,   2.156517,   1.971525]
   RMS electron-hole separation [Ang]:   3.129564
     Cartesian components [Ang]:       [  1.432506,   1.961146,   1.973829]
   Covariance(r_h, r_e) [Ang^2]:         1.540152
   Correlation coefficient:              0.332340
   Center-of-mass size [Ang]:            1.997171
     Cartesian components [Ang]:       [  0.959384,   1.447161,   0.986915]


 All requested transition properties have been computed

 Transition Properties:   CPU 468.35 s  wall 440.46 s

 Total ccman2 time:   CPU 158622.57 s  wall 26527.57 s

 50 B3u                                                                        

 --------------------------------------------------------------
             Orbital Energies (a.u.) and Symmetries
 --------------------------------------------------------------

 Alpha MOs, Unrestricted
 -- Occupied --                  
-11.495 -11.495 -11.494 -11.494 -11.442 -11.442  -1.403  -1.282
  1 B2u   1 Ag    1 B3u   1 B1g   2 B3u   2 Ag    3 Ag    2 B2u                
 -1.238  -1.063  -1.057  -0.938  -0.866  -0.860  -0.830  -0.801
  3 B3u   2 B1g   4 Ag    5 Ag    4 B3u   3 B2u   4 B2u   5 B3u                
 -0.757  -0.723  -0.720  -0.625  -0.547
  1 B1u   3 B1g   6 Ag    1 B3g   1 B2g                                        
 -- Virtual --                   
 -0.135  -0.089  -0.082  -0.073  -0.070  -0.068  -0.053  -0.052
  1 Au    7 Ag    2 B1u   5 B2u   6 B3u   3 B1u   8 Ag    4 B1g                
 -0.051  -0.048  -0.045  -0.028  -0.028  -0.026  -0.025  -0.023
  9 Ag    2 B3g   2 B2g   6 B2u   7 B3u   7 B2u  10 Ag    8 B3u                
 -0.023  -0.022  -0.010  -0.008  -0.008  -0.007  -0.003   0.003
  2 Au    4 B1u   8 B2u   5 B1g  11 Ag    9 B3u   3 B2g   6 B1g                
  0.004   0.024   0.027   0.028   0.040   0.048   0.049   0.074
 12 Ag    5 B1u  13 Ag   10 B3u   3 B3g   4 B2g   9 B2u  14 Ag                 
  0.076   0.079   0.079   0.086   0.088   0.095   0.097   0.105
  7 B1g   5 B2g  10 B2u   3 Au   11 B3u   6 B1u  15 Ag   11 B2u                
  0.112   0.121   0.126   0.127   0.127   0.142   0.144   0.152
 12 B3u   8 B1g  16 Ag   13 B3u  12 B2u   9 B1g  17 Ag   14 B3u                
  0.169   0.172   0.191   0.245   0.250   0.257   0.261   0.269
  6 B2g  18 Ag   10 B1g  13 B2u  15 B3u  16 B3u  11 B1g  19 Ag                 
  0.340   0.341   0.342   0.349   0.429   0.435   0.511   0.529
 14 B2u  12 B1g  17 B3u  20 Ag   15 B2u  21 Ag   18 B3u  16 B2u                
  0.530   0.549   0.551   0.555   0.556   0.558   0.586   0.601
  7 B1u  13 B1g  19 B3u  22 Ag   14 B1g   4 B3g   7 B2g  23 Ag                 
  0.611   0.642   0.690   0.704   0.735   0.738   0.743   0.753
  4 Au    8 B1u   8 B2g  20 B3u  21 B3u  17 B2u  15 B1g  24 Ag                 
  0.775   0.809   0.823   0.863   0.883   0.884   0.893   0.902
 25 Ag   18 B2u  22 B3u  16 B1g  26 Ag   23 B3u  19 B2u  24 B3u                
  0.918   0.938   0.992   0.995   1.003   1.079   1.111   1.155
 17 B1g   9 B1u  18 B1g  27 Ag    5 B3g   6 B3g   9 B2g  10 B1u                
  1.163   1.270   1.332   1.498   1.557   1.564   1.582   1.619
  5 Au   25 B3u  28 Ag   20 B2u  29 Ag   21 B2u  26 B3u  10 B2g                
  1.623   1.623   1.693   1.699   1.705   1.720   1.779   1.826
  6 Au   11 B1u  30 Ag   19 B1g  22 B2u  27 B3u  12 B1u   7 B3g                
  1.851   1.890   1.897   1.923   1.987   2.010   2.026   2.030
 11 B2g  20 B1g  31 Ag   23 B2u  12 B2g   8 B3g  24 B2u  28 B3u                
  2.036   2.085   2.116   2.124   2.138   2.165   2.412   2.424
 21 B1g  29 B3u  22 B1g  32 Ag    7 Au   13 B1u  13 B2g   8 Au                 
  2.521   2.533   2.560   2.609   2.627   2.715   2.725   2.767
 23 B1g  33 Ag   34 Ag   25 B2u  30 B3u  31 B3u  26 B2u  32 B3u                
  2.772   2.817   2.819   2.835   2.837   2.839   2.852   2.950
 35 Ag   33 B3u  27 B2u  24 B1g  14 B1u  34 B3u  36 Ag    9 B3g                
  2.985   3.039   3.046   3.084   3.106   3.121   3.245   3.320
 14 B2g   9 Au   25 B1g  15 B1u  26 B1g  37 Ag   15 B2g  28 B2u                
  3.528   3.549   3.671   3.688   3.706   3.844   4.158   4.182
 38 Ag   27 B1g  29 B2u  35 B3u  39 Ag   36 B3u  28 B1g  40 Ag                 
  4.254   4.298   4.305   4.898   5.037   5.215   5.229   5.535
 37 B3u  30 B2u  38 B3u  41 Ag   29 B1g  31 B2u  39 B3u  30 B1g                
  5.564   5.973  20.414  20.467  20.498  20.608  20.641  20.918
 42 Ag   40 B3u  43 Ag   32 B2u  41 B3u  31 B1g  44 Ag   42 B3u                
 79.986  80.044  80.073  80.164  80.196  80.404 321.830 321.882
 45 Ag   33 B2u  43 B3u  32 B1g  46 Ag   44 B3u  47 Ag   34 B2u                
321.909 321.985 322.015 322.1821431.4011431.4461431.4711431.532
 45 B3u  33 B1g  48 Ag   46 B3u  49 Ag   35 B2u  47 B3u  34 B1g                
*******1431.7008749.6418749.6768749.7008749.7468749.7758749.884
 50 Ag   48 B3u  51 Ag   36 B2u  49 B3u  35 B1g  52 Ag   50 B3u                

 Beta MOs, Unrestricted
 -- Occupied --                  
-11.487 -11.487 -11.486 -11.486 -11.449 -11.449  -1.377  -1.242
  1 Ag    1 B2u   1 B3u   1 B1g   2 B3u   2 Ag    3 Ag    3 B3u                
 -1.229  -1.051  -1.042  -0.934  -0.860  -0.853  -0.821  -0.803
  2 B2u   4 Ag    2 B1g   5 Ag    4 B3u   3 B2u   4 B2u   5 B3u                
 -0.721  -0.716  -0.670  -0.569
  3 B1g   6 Ag    1 B1u   1 B2g                                                
 -- Virtual --                   
 -0.249  -0.089  -0.073  -0.072  -0.070  -0.059  -0.052  -0.052
  1 B3g   7 Ag    5 B2u   2 B1u   6 B3u   3 B1u   8 Ag    4 B1g                
 -0.051  -0.046  -0.045  -0.045  -0.028  -0.028  -0.025  -0.024
  9 Ag    2 B3g   2 B2g   1 Au    6 B2u   7 B3u   7 B2u  10 Ag                 
 -0.024  -0.021  -0.018  -0.009  -0.008  -0.008  -0.007  -0.003
  8 B3u   4 B1u   2 Au    8 B2u  11 Ag    5 B1g   9 B3u   3 B2g                
  0.004   0.004   0.028   0.029   0.031   0.047   0.049   0.051
  6 B1g  12 Ag   10 B3u   5 B1u  13 Ag    4 B2g   9 B2u   3 B3g                
  0.074   0.077   0.088   0.088   0.089   0.097   0.098   0.103
 14 Ag    7 B1g  10 B2u  11 B3u   5 B2g   6 B1u  15 Ag    3 Au                 
  0.108   0.112   0.123   0.126   0.127   0.127   0.144   0.144
 11 B2u  12 B3u   8 B1g  16 Ag   13 B3u  12 B2u   9 B1g  17 Ag                 
  0.153   0.173   0.191   0.195   0.247   0.251   0.262   0.269
 14 B3u  18 Ag   10 B1g   6 B2g  13 B2u  15 B3u  16 B3u  19 Ag                 
  0.277   0.343   0.343   0.344   0.349   0.431   0.437   0.527
 11 B1g  12 B1g  17 B3u  14 B2u  20 Ag   15 B2u  21 Ag   18 B3u                
  0.547   0.551   0.552   0.553   0.560   0.566   0.586   0.596
 19 B3u  16 B2u   7 B1u  13 B1g  22 Ag   14 B1g   7 B2g   4 B3g                
  0.605   0.637   0.646   0.702   0.707   0.739   0.739   0.750
 23 Ag    8 B1u   4 Au    8 B2g  20 B3u  21 B3u  17 B2u  15 B1g                
  0.753   0.780   0.816   0.822   0.870   0.881   0.890   0.903
 24 Ag   25 Ag   18 B2u  22 B3u  16 B1g  26 Ag   23 B3u  19 B2u                
  0.903   0.920   0.955   0.997   1.001   1.030   1.109   1.110
 24 B3u  17 B1g   9 B1u  18 B1g  27 Ag    5 B3g   9 B2g   6 B3g                
  1.172   1.179   1.274   1.346   1.501   1.565   1.572   1.581
  5 Au   10 B1u  25 B3u  28 Ag   20 B2u  29 Ag   21 B2u  26 B3u                
  1.623   1.630   1.636   1.693   1.705   1.717   1.724   1.785
 10 B2g   6 Au   11 B1u  30 Ag   19 B1g  27 B3u  22 B2u  12 B1u                
  1.840   1.850   1.896   1.897   1.924   2.010   2.015   2.032
  7 B3g  11 B2g  20 B1g  31 Ag   23 B2u  12 B2g   8 B3g  28 B3u                
  2.036   2.036   2.089   2.125   2.126   2.156   2.165   2.421
 21 B1g  24 B2u  29 B3u  22 B1g  32 Ag    7 Au   13 B1u  13 B2g                
  2.435   2.529   2.533   2.561   2.610   2.626   2.718   2.726
  8 Au   23 B1g  33 Ag   34 Ag   25 B2u  30 B3u  31 B3u  26 B2u                
  2.769   2.773   2.819   2.820   2.836   2.839   2.852   2.856
 32 B3u  35 Ag   33 B3u  27 B2u  24 B1g  34 B3u  36 Ag   14 B1u                
  2.980   2.986   3.047   3.070   3.079   3.110   3.121   3.256
  9 B3g  14 B2g  25 B1g   9 Au   15 B1u  26 B1g  37 Ag   15 B2g                
  3.324   3.536   3.550   3.678   3.689   3.710   3.847   4.166
 28 B2u  38 Ag   27 B1g  29 B2u  35 B3u  39 Ag   36 B3u  28 B1g                
  4.182   4.260   4.304   4.307   4.904   5.043   5.223   5.231
 40 Ag   37 B3u  30 B2u  38 B3u  41 Ag   29 B1g  31 B2u  39 B3u                
  5.546   5.563   5.977  20.417  20.472  20.497  20.613  20.640
 30 B1g  42 Ag   40 B3u  43 Ag   32 B2u  41 B3u  31 B1g  44 Ag                 
 20.920  79.987  80.045  80.072  80.165  80.195  80.405 321.830
 42 B3u  45 Ag   33 B2u  43 B3u  32 B1g  46 Ag   44 B3u  47 Ag                 
321.883 321.909 321.985 322.015 322.1821431.4011431.4461431.471
 34 B2u  45 B3u  33 B1g  48 Ag   46 B3u  49 Ag   35 B2u  47 B3u                
Archival summary:
1\1\n-62-29-23\SP\ProcedureUnspecified\BasisUnspecified\66(1+,2)\malop\FriDec715:10:072018FriDec715:10:072018\0\\#,ProcedureUnspecified,BasisUnspecified,\\1,2\C\H,1,1.08144\C,1,1.39359,2,120\H,3,1.08144,1,120,2,-0,0\C,3,1.39359,1,120,2,180,0\H,5,1.08144,3,120,1,180,0\C,5,1.39359,3,120,1,-0,0\H,7,1.08144,5,120,3,180,0\C,7,1.39359,5,120,3,0,0\H,9,1.08144,7,120,5,180,0\C,9,1.39359,7,120,5,-0,0\H,11,1.08144,9,120,7,-180,0\\HF=-230.46544\\@

 Total job time:  26755.81s(wall), 159050.24s(cpu) 
 Fri Dec  7 15:10:07 2018

======= MOLDEN-FORMATTED INPUT FILE FOLLOWS =======
[Molden Format]
[Atoms] (Angs)
  H      1    1      2.47503475      0.00000000     -0.00000000
  C      2    6      1.39359294      0.00000000     -0.00000000
  C      3    6      0.69679647      1.20688689      0.00000000
  H      4    1      1.23751738      2.14344297      0.00000000
  C      5    6     -0.69679647      1.20688689      0.00000000
  H      6    1     -1.23751738      2.14344297      0.00000000
  C      7    6     -1.39359294      0.00000000      0.00000000
  H      8    1     -2.47503475      0.00000000      0.00000000
  C      9    6     -0.69679647     -1.20688689     -0.00000000
  H     10    1     -1.23751738     -2.14344297     -0.00000000
  C     11    6      0.69679647     -1.20688689     -0.00000000
  H     12    1      1.23751738     -2.14344297     -0.00000000

======= END OF MOLDEN-FORMATTED INPUT FILE =======


        *************************************************************
        *                                                           *
        *  Thank you very much for using Q-Chem.  Have a nice day.  *
        *                                                           *
        *************************************************************


*******1431.5621431.7008749.6418749.6768749.7008749.7468749.775
 34 B1g  50 Ag   48 B3u  51 Ag   36 B2u  49 B3u  35 B1g  52 Ag                 
*******
 50 B3u                                                                        
 --------------------------------------------------------------

          Ground-State Mulliken Net Atomic Charges

     Atom                 Charge (a.u.)    Spin (a.u.)
  --------------------------------------------------------
      1 H                     0.276428       0.019705
      2 C                    -0.271064      -0.453971
      3 C                    -0.058160       0.500446
      4 H                     0.305481      -0.033307
      5 C                    -0.058163       0.500432
      6 H                     0.305480      -0.033306
      7 C                    -0.271064      -0.453971
      8 H                     0.276428       0.019705
      9 C                    -0.058160       0.500446
     10 H                     0.305481      -0.033307
     11 C                    -0.058163       0.500432
     12 H                     0.305480      -0.033306
  --------------------------------------------------------
  Sum of atomic charges =     1.000000
  Sum of spin   charges =     1.000000

 -----------------------------------------------------------------
                    Cartesian Multipole Moments
 -----------------------------------------------------------------
    Charge (ESU x 10^10)
                 4.8032
    Dipole Moment (Debye)
         X       0.0000      Y       0.0000      Z      -0.0000
       Tot       0.0000
    Quadrupole Moments (Debye-Ang)
        XX     -22.8122     XY       0.0000     YY     -17.9126
        XZ      -0.0000     YZ      -0.0000     ZZ     -36.0327
    Octopole Moments (Debye-Ang^2)
       XXX      -0.0000    XXY       0.0000    XYY      -0.0000
       YYY      -0.0000    XXZ      -0.0000    XYZ      -0.0000
       YYZ      -0.0000    XZZ      -0.0000    YZZ       0.0000
       ZZZ      -0.0000
    Hexadecapole Moments (Debye-Ang^3)
      XXXX    -218.6018   XXXY       0.0000   XXYY     -67.2437
      XYYY       0.0001   YYYY    -197.6939   XXXZ      -0.0000
      XXYZ      -0.0000   XYYZ      -0.0000   YYYZ      -0.0000
      XXZZ     -58.4375   XYZZ       0.0000   YYZZ     -53.1289
      XZZZ      -0.0000   YZZZ      -0.0000   ZZZZ     -39.2930
 -----------------------------------------------------------------
