[Molden Format]
[Atoms] (Angs)
  H      1    1     -2.14003202      0.00000000      0.38146042
  C      2    6     -1.21205832      0.00000000     -0.17180643
  C      3    6     -1.20429565      0.00000000     -1.56369320
  H      4    1     -2.14371879      0.00000000     -2.09923439
  C      5    6     -0.00000000      0.00000000     -2.26269040
  H      6    1     -0.00000000      0.00000000     -3.34354440
  C      7    6      1.20429565      0.00000000     -1.56369320
  H      8    1      2.14371879      0.00000000     -2.09923439
  C      9    6      1.21205832     -0.00000000     -0.17180643
  H     10    1      2.14003202     -0.00000000      0.38146042
  C     11    6      0.00000000     -0.00000000      0.51110416
 Cl     12   17      0.00000000     -0.00000000      2.24203561
[GTO]
1    0
S    3    1.000000
   3.38650000E+01    2.54938000E-02 
   5.09479000E+00    1.90373000E-01 
   1.15879000E+00    8.52161000E-01 
S    1    1.000000
   3.25840000E-01    1.00000000E+00 
S    1    1.000000
   1.02741000E-01    1.00000000E+00 
S    1    1.000000
   3.60000000E-02    1.00000000E+00 
P    1    1.000000
   7.50000000E-01    1.00000000E+00 

2    0
S    1    1.000000
   4.56324000E+03    1.96665000E-03 
S    1    1.000000
   6.82024000E+02    1.52306000E-02 
S    1    1.000000
   1.54973000E+02    7.61269000E-02 
S    1    1.000000
   4.44553000E+01    2.60801000E-01 
S    1    1.000000
   1.30290000E+01    6.16462000E-01 
S    1    1.000000
   1.82773000E+00    2.21006000E-01 
SP   3    1.000000
   2.09642000E+01    1.14660000E-01   4.02487000E-02 
   4.80331000E+00    9.19999000E-01   2.37594000E-01 
   1.45933000E+00   -3.03068000E-03   8.15854000E-01 
SP   1    1.000000
   4.83456000E-01    1.00000000E+00   1.00000000E+00 
SP   1    1.000000
   1.45585000E-01    1.00000000E+00   1.00000000E+00 
SP   1    1.000000
   4.38000000E-02    1.00000000E+00   1.00000000E+00 
SP   1    1.000000
   1.31927711E-02    1.00000000E+00   1.00000000E+00 
D    1    1.000000
   6.26000000E-01    1.00000000E+00 

3    0
S    1    1.000000
   4.56324000E+03    1.96665000E-03 
S    1    1.000000
   6.82024000E+02    1.52306000E-02 
S    1    1.000000
   1.54973000E+02    7.61269000E-02 
S    1    1.000000
   4.44553000E+01    2.60801000E-01 
S    1    1.000000
   1.30290000E+01    6.16462000E-01 
S    1    1.000000
   1.82773000E+00    2.21006000E-01 
SP   3    1.000000
   2.09642000E+01    1.14660000E-01   4.02487000E-02 
   4.80331000E+00    9.19999000E-01   2.37594000E-01 
   1.45933000E+00   -3.03068000E-03   8.15854000E-01 
SP   1    1.000000
   4.83456000E-01    1.00000000E+00   1.00000000E+00 
SP   1    1.000000
   1.45585000E-01    1.00000000E+00   1.00000000E+00 
SP   1    1.000000
   4.38000000E-02    1.00000000E+00   1.00000000E+00 
SP   1    1.000000
   1.31927711E-02    1.00000000E+00   1.00000000E+00 
D    1    1.000000
   6.26000000E-01    1.00000000E+00 

4    0
S    3    1.000000
   3.38650000E+01    2.54938000E-02 
   5.09479000E+00    1.90373000E-01 
   1.15879000E+00    8.52161000E-01 
S    1    1.000000
   3.25840000E-01    1.00000000E+00 
S    1    1.000000
   1.02741000E-01    1.00000000E+00 
S    1    1.000000
   3.60000000E-02    1.00000000E+00 
P    1    1.000000
   7.50000000E-01    1.00000000E+00 

5    0
S    1    1.000000
   4.56324000E+03    1.96665000E-03 
S    1    1.000000
   6.82024000E+02    1.52306000E-02 
S    1    1.000000
   1.54973000E+02    7.61269000E-02 
S    1    1.000000
   4.44553000E+01    2.60801000E-01 
S    1    1.000000
   1.30290000E+01    6.16462000E-01 
S    1    1.000000
   1.82773000E+00    2.21006000E-01 
SP   3    1.000000
   2.09642000E+01    1.14660000E-01   4.02487000E-02 
   4.80331000E+00    9.19999000E-01   2.37594000E-01 
   1.45933000E+00   -3.03068000E-03   8.15854000E-01 
SP   1    1.000000
   4.83456000E-01    1.00000000E+00   1.00000000E+00 
SP   1    1.000000
   1.45585000E-01    1.00000000E+00   1.00000000E+00 
SP   1    1.000000
   4.38000000E-02    1.00000000E+00   1.00000000E+00 
SP   1    1.000000
   1.31927711E-02    1.00000000E+00   1.00000000E+00 
D    1    1.000000
   6.26000000E-01    1.00000000E+00 

6    0
S    3    1.000000
   3.38650000E+01    2.54938000E-02 
   5.09479000E+00    1.90373000E-01 
   1.15879000E+00    8.52161000E-01 
S    1    1.000000
   3.25840000E-01    1.00000000E+00 
S    1    1.000000
   1.02741000E-01    1.00000000E+00 
S    1    1.000000
   3.60000000E-02    1.00000000E+00 
P    1    1.000000
   7.50000000E-01    1.00000000E+00 

7    0
S    1    1.000000
   4.56324000E+03    1.96665000E-03 
S    1    1.000000
   6.82024000E+02    1.52306000E-02 
S    1    1.000000
   1.54973000E+02    7.61269000E-02 
S    1    1.000000
   4.44553000E+01    2.60801000E-01 
S    1    1.000000
   1.30290000E+01    6.16462000E-01 
S    1    1.000000
   1.82773000E+00    2.21006000E-01 
SP   3    1.000000
   2.09642000E+01    1.14660000E-01   4.02487000E-02 
   4.80331000E+00    9.19999000E-01   2.37594000E-01 
   1.45933000E+00   -3.03068000E-03   8.15854000E-01 
SP   1    1.000000
   4.83456000E-01    1.00000000E+00   1.00000000E+00 
SP   1    1.000000
   1.45585000E-01    1.00000000E+00   1.00000000E+00 
SP   1    1.000000
   4.38000000E-02    1.00000000E+00   1.00000000E+00 
SP   1    1.000000
   1.31927711E-02    1.00000000E+00   1.00000000E+00 
D    1    1.000000
   6.26000000E-01    1.00000000E+00 

8    0
S    3    1.000000
   3.38650000E+01    2.54938000E-02 
   5.09479000E+00    1.90373000E-01 
   1.15879000E+00    8.52161000E-01 
S    1    1.000000
   3.25840000E-01    1.00000000E+00 
S    1    1.000000
   1.02741000E-01    1.00000000E+00 
S    1    1.000000
   3.60000000E-02    1.00000000E+00 
P    1    1.000000
   7.50000000E-01    1.00000000E+00 

9    0
S    1    1.000000
   4.56324000E+03    1.96665000E-03 
S    1    1.000000
   6.82024000E+02    1.52306000E-02 
S    1    1.000000
   1.54973000E+02    7.61269000E-02 
S    1    1.000000
   4.44553000E+01    2.60801000E-01 
S    1    1.000000
   1.30290000E+01    6.16462000E-01 
S    1    1.000000
   1.82773000E+00    2.21006000E-01 
SP   3    1.000000
   2.09642000E+01    1.14660000E-01   4.02487000E-02 
   4.80331000E+00    9.19999000E-01   2.37594000E-01 
   1.45933000E+00   -3.03068000E-03   8.15854000E-01 
SP   1    1.000000
   4.83456000E-01    1.00000000E+00   1.00000000E+00 
SP   1    1.000000
   1.45585000E-01    1.00000000E+00   1.00000000E+00 
SP   1    1.000000
   4.38000000E-02    1.00000000E+00   1.00000000E+00 
SP   1    1.000000
   1.31927711E-02    1.00000000E+00   1.00000000E+00 
D    1    1.000000
   6.26000000E-01    1.00000000E+00 

10    0
S    3    1.000000
   3.38650000E+01    2.54938000E-02 
   5.09479000E+00    1.90373000E-01 
   1.15879000E+00    8.52161000E-01 
S    1    1.000000
   3.25840000E-01    1.00000000E+00 
S    1    1.000000
   1.02741000E-01    1.00000000E+00 
S    1    1.000000
   3.60000000E-02    1.00000000E+00 
P    1    1.000000
   7.50000000E-01    1.00000000E+00 

11    0
S    1    1.000000
   4.56324000E+03    1.96665000E-03 
S    1    1.000000
   6.82024000E+02    1.52306000E-02 
S    1    1.000000
   1.54973000E+02    7.61269000E-02 
S    1    1.000000
   4.44553000E+01    2.60801000E-01 
S    1    1.000000
   1.30290000E+01    6.16462000E-01 
S    1    1.000000
   1.82773000E+00    2.21006000E-01 
SP   3    1.000000
   2.09642000E+01    1.14660000E-01   4.02487000E-02 
   4.80331000E+00    9.19999000E-01   2.37594000E-01 
   1.45933000E+00   -3.03068000E-03   8.15854000E-01 
SP   1    1.000000
   4.83456000E-01    1.00000000E+00   1.00000000E+00 
SP   1    1.000000
   1.45585000E-01    1.00000000E+00   1.00000000E+00 
SP   1    1.000000
   4.38000000E-02    1.00000000E+00   1.00000000E+00 
SP   1    1.000000
   1.31927711E-02    1.00000000E+00   1.00000000E+00 
D    1    1.000000
   6.26000000E-01    1.00000000E+00 

12    0
S    6    1.000000
   1.05819000E+05    7.38000000E-04 
   1.58720000E+04    5.71800000E-03 
   3.61965000E+03    2.94950000E-02 
   1.03080000E+03    1.17286000E-01 
   3.39908000E+02    3.62949000E-01 
   1.24538000E+02    5.84149000E-01 
S    3    1.000000
   1.24538000E+02    1.34177000E-01 
   4.95135000E+01    6.24250000E-01 
   2.08056000E+01    2.91756000E-01 
S    1    1.000000
   6.58346000E+00    1.00000000E+00 
S    1    1.000000
   2.56468000E+00    1.00000000E+00 
S    1    1.000000
   5.59763000E-01    1.00000000E+00 
S    1    1.000000
   1.83273000E-01    1.00000000E+00 
P    5    1.000000
   5.89776000E+02    2.39100000E-03 
   1.39849000E+02    1.85040000E-02 
   4.51413000E+01    8.13770000E-02 
   1.68733000E+01    2.21552000E-01 
   6.74110000E+00    7.72569000E-01 
P    2    1.000000
   6.74110000E+00   -1.57224400E+00 
   2.77152000E+00    9.92389000E-01 
P    1    1.000000
   1.02387000E+00    1.00000000E+00 
P    1    1.000000
   3.81368000E-01    1.00000000E+00 
P    1    1.000000
   1.09437000E-01    1.00000000E+00 
SP   1    1.000000
   4.83000000E-02    1.00000000E+00   1.00000000E+00 
SP   1    1.000000
   1.45481928E-02    1.00000000E+00   1.00000000E+00 
D    1    1.000000
   7.50000000E-01    1.00000000E+00 

[MO]
Sym=X
Ene= 2.000473
Spin=Alpha
Occup=1
     1    1.076032803968e-12
     2    1.852172855605e-12
     3    5.211731759744e-13
     4   -5.263741479835e-12
     5    1.403152610674e-13
     6    2.296607720820e-03
     7   -6.506792788511e-14
     8    1.529710751572e-15
     9    6.265296580469e-15
    10    3.965628607575e-14
    11    1.312928036247e-13
    12    3.288268206939e-13
    13    8.422059398732e-14
    14    4.106163038049e-13
    15   -1.068401413572e-12
    16    3.541325240924e-02
    17    7.012581678429e-13
    18    1.923950424505e-13
    19   -1.602821991080e-12
    20    5.881044362364e-02
    21    1.014663122433e-12
    22   -2.034726933999e-12
    23   -1.641780181202e-12
    24    7.015242461636e-02
    25    3.285167386532e-13
    26   -4.989094168943e-13
    27   -2.561025297259e-12
    28   -3.676889425488e-02
    29    7.122359751472e-12
    30   -1.201055153985e-13
    31   -5.975664374229e-12
    32    1.027274520389e-01
    33   -7.293891240961e-12
    34   -8.910414063148e-14
    35   -1.960616980497e-13
    36   -3.912554672914e-03
    37    3.425461500400e-14
    38    3.336531288241e-03
    39   -3.129892932351e-17
    40    1.959779315457e-15
    41    6.718629479295e-15
    42    2.443837309595e-14
    43    3.004485811200e-14
    44   -4.668166715657e-14
    45    1.765062388426e-13
    46    3.958055642161e-13
    47    2.472910785886e-02
    48   -5.528591136786e-13
    49    1.007927901341e-13
    50    5.814085013927e-13
    51    4.261728457000e-02
    52   -7.686304545517e-13
    53   -1.218419461354e-12
    54    1.910240534648e-13
    55    2.577896791529e-02
    56   -2.544829916270e-13
    57    2.550250585091e-13
    58   -3.637061953658e-12
    59    2.627724459302e-02
    60   -2.111591456525e-12
    61    2.058830109495e-12
    62    2.170518719930e-12
    63   -7.858414699236e-02
    64    2.203602467765e-12
    65   -1.986680229944e-13
    66   -7.035464159009e-14
    67    4.850924331494e-03
    68    9.285710115972e-14
    69    2.796776276581e-03
    70   -3.825858878594e-14
    71    2.302665363944e-14
    72    3.357541375963e-13
    73   -4.427702243537e-12
    74    5.692197042336e-14
    75    1.886613932959e-03
    76   -7.303352937777e-14
    77   -1.267149254182e-17
    78    2.448248993330e-15
    79    1.080762391221e-14
    80    3.686040949340e-14
    81    8.819496938545e-14
    82    1.698021713276e-14
    83    2.225541378438e-13
    84    1.035918391439e-13
    85    2.063925961266e-02
    86    1.604220103085e-12
    87   -3.997077265984e-13
    88    2.065366001110e-13
    89    2.443239841774e-02
    90    2.474159160530e-12
    91   -3.860242812894e-13
    92   -5.228650467635e-13
    93    5.941221543061e-03
    94    1.911130364124e-12
    95    1.800047256498e-11
    96    2.132175842614e-12
    97   -2.959199857336e-02
    98    2.512740284081e-12
    99    5.297954483722e-12
   100    3.755651291016e-13
   101    6.847737092872e-02
   102   -1.597854951495e-12
   103   -2.640404469342e-13
   104   -8.717400838980e-16
   105    4.888846157576e-03
   106    1.388630277248e-13
   107   -1.473798847745e-15
   108   -1.451774782889e-12
   109   -2.075712273132e-12
   110   -5.752558351744e-13
   111   -2.920022057291e-12
   112    1.598503992505e-14
   113    6.794587972661e-04
   114   -1.790350248724e-13
   115    7.862794264869e-17
   116    4.137487668104e-15
   117    1.592837826725e-14
   118    5.167225171696e-14
   119    1.591282420216e-13
   120    1.145493052289e-13
   121    1.279372764214e-13
   122   -4.442368596170e-13
   123    2.472910785886e-02
   124   -7.802208989388e-13
   125   -3.028497702542e-13
   126   -6.233865653835e-13
   127    4.261728456993e-02
   128   -1.169939869591e-12
   129    2.892312198221e-13
   130    7.982491521039e-14
   131    2.577896791516e-02
   132   -1.076325441427e-12
   133   -6.945093711413e-12
   134    7.180722591401e-12
   135    2.627724459235e-02
   136   -9.623351804540e-13
   137    2.756544473750e-12
   138   -3.644438799709e-13
   139   -7.858414698640e-02
   140    3.950764497752e-12
   141   -2.543921458964e-13
   142   -9.844066103063e-14
   143    4.850924331481e-03
   144    1.147172508002e-13
   145   -2.796776276541e-03
   146    1.847237663843e-13
   147    4.738478719238e-13
   148   -4.885075149919e-13
   149   -6.651959477024e-12
   150   -1.516773582217e-14
   151    1.886613932990e-03
   152   -7.239959068352e-14
   153    4.402124333637e-16
   154    2.994149437544e-15
   155    1.656082955061e-14
   156    5.418001282368e-14
   157    1.294375068590e-13
   158    8.811147451373e-14
   159    3.497083714424e-13
   160   -6.219647397824e-13
   161    3.541325240919e-02
   162    7.229246081382e-13
   163   -1.141262563986e-12
   164   -9.479091409941e-13
   165    5.881044362369e-02
   166    1.051219037308e-12
   167    5.353240792253e-13
   168   -8.858450422241e-13
   169    7.015242461623e-02
   170    7.317929802806e-13
   171   -1.669138563718e-11
   172    4.418291165702e-12
   173   -3.676889425419e-02
   174    4.061327075592e-12
   175    5.743498565099e-13
   176   -2.081665622128e-12
   177    1.027274520326e-01
   178   -1.085879915178e-11
   179   -9.613873793481e-14
   180   -6.018561990070e-14
   181   -3.912554672907e-03
   182   -2.069802732006e-14
   183   -3.336531288214e-03
   184   -2.872477177455e-13
   185   -4.450595234029e-14
   186   -7.293801659840e-13
   187   -2.936476106600e-12
   188    2.681535300763e-14
   189    2.296607720835e-03
   190    7.048731651379e-14
   191   -4.322124795322e-16
   192   -1.085415120379e-14
   193   -4.583046243371e-14
   194   -1.688898965159e-13
   195   -3.758360371467e-13
   196   -1.073623902433e-13
   197   -5.763785537752e-13
   198    6.857404296737e-13
   199    6.252745492871e-03
   200    1.609855301353e-13
   201   -1.397032113687e-13
   202    1.060337655861e-12
   203    6.175822509880e-03
   204    2.868154291615e-13
   205    7.134464673098e-13
   206   -2.534744783303e-13
   207    1.979493220901e-02
   208    1.810067970071e-13
   209    3.473938450641e-12
   210    4.843243868230e-12
   211    5.542419248739e-02
   212   -2.504786511776e-11
   213    2.790973973039e-12
   214    3.731335397604e-12
   215   -1.025718632977e-01
   216    2.251036136188e-11
   217   -5.002168547090e-14
   218   -1.992106267520e-13
   219   -2.689260895375e-02
   220    3.710697001679e-14
   221   -5.242916918627e-15
   222    5.214032580141e-13
   223    1.247142898341e-12
   224   -1.656190312491e-12
   225   -2.503225468833e-12
   226    1.875540322131e-12
   227    1.513672903557e-12
   228    6.898577712369e-13
   229    3.314013504917e-01
   230    9.349926785855e-13
   231    1.441969047753e-13
   232    7.947351338023e-02
   233    2.578009148405e-13
   234   -1.208503513026e-12
   235   -2.369678914171e-01
   236    2.702204296277e-13
   237   -2.746055543204e-12
   238   -5.744700354155e-01
   239    5.139888698223e-13
   240   -1.891490563373e-12
   241   -3.795808965993e-01
   242    4.557074252307e-13
   243    2.270082191511e-11
   244    9.600387109889e-14
   245    5.335187012184e-02
   246   -4.929342730324e-12
   247   -8.750215367917e-12
   248    1.649466206755e-13
   249   -2.815101338244e-02
   250   -2.795999910405e-12
   251   -5.803609431981e-14
   252   -1.804032693460e-14
   253    8.159786477699e-03
   254    1.219759943439e-14
   255   -6.090742954805e-15
Sym=X
Ene= 2.000095
Spin=Alpha
Occup=1
     1   -1.062291170085e-01
     2   -1.618985432942e-01
     3   -2.957966911056e-02
     4    7.760367230510e-02
     5   -1.194018863261e-02
     6    4.336576209833e-14
     7    1.078797974758e-02
     8    5.941074377085e-05
     9    4.492448206073e-04
    10    2.378808801818e-03
    11    7.762487419276e-03
    12    1.905768557391e-02
    13    7.381544511845e-03
    14    5.109935308258e-02
    15    9.145506972757e-02
    16    2.720694481200e-13
    17   -1.863085125433e-02
    18   -1.314538719096e-01
    19    1.429456369320e-01
    20    4.688350395964e-13
    21   -3.064651801137e-02
    22   -2.062520040473e-01
    23    5.100521887959e-02
    24    3.937810969448e-13
    25   -6.084541367200e-02
    26    1.101397530933e+00
    27    4.443057137923e-01
    28    1.709290381729e-13
    29    4.159857996302e-01
    30    2.723599752060e-02
    31    5.338283050053e-02
    32   -6.577108597999e-12
    33   -1.290257076454e-02
    34    7.976693721605e-04
    35    1.364018452570e-02
    36    4.222875466738e-14
    37   -5.822005179725e-03
    38    3.341116114568e-14
    39   -8.979852821033e-06
    40   -6.763548588060e-05
    41   -3.620701917580e-04
    42   -1.170074499491e-03
    43   -2.879005980424e-03
    44   -1.182205541374e-03
    45   -8.598350839667e-03
    46    9.609240587885e-03
    47    1.418891018418e-13
    48   -1.709848974668e-02
    49    2.610023035592e-02
    50    1.456182793394e-02
    51    2.542588863701e-13
    52   -2.599811606308e-02
    53    4.281097584345e-02
    54    1.763443617242e-02
    55    1.308495910913e-13
    56   -1.448516663784e-02
    57   -1.503308468641e-01
    58   -2.556542618237e-01
    59   -7.326764586470e-14
    60    2.434790914273e-01
    61   -9.281171793105e-03
    62   -4.283506610959e-02
    63    6.573607697560e-12
    64    1.248616371820e-02
    65   -2.786355981218e-03
    66    7.698231593225e-03
    67    1.277866745764e-14
    68    2.185113257493e-03
    69    9.811530527594e-15
    70    1.036149516358e-02
    71    2.043952127973e-02
    72    1.192028542747e-02
    73   -3.641720299693e-02
    74    6.155005746360e-04
    75    2.417310178553e-14
    76    6.626801458561e-05
    77   -3.464327197182e-14
    78   -2.679551896210e-13
    79   -1.348141014503e-12
    80   -4.613380407657e-12
    81   -1.101364158834e-11
    82   -4.745163462348e-12
    83   -1.367190457319e-11
    84   -2.687342270468e-02
    85    7.560456578436e-14
    86    9.584973492748e-12
    87    1.431555323346e-12
    88   -3.135560442905e-02
    89    6.057179827224e-14
    90    1.914730181068e-11
    91   -2.501229045531e-10
    92    1.910573527279e-02
    93    1.706900557383e-14
    94   -2.651592227278e-11
    95    5.758931615555e-10
    96   -3.191576155433e-01
    97    3.529302995682e-14
    98    6.635399325053e-10
    99    9.732910762765e-11
   100    2.435892179974e-02
   101   -6.473423741754e-12
   102    1.584894073070e-11
   103   -5.464200375859e-13
   104   -4.964625462858e-03
   105    5.299700675012e-14
   106   -1.389465228751e-12
   107   -2.783159434174e-15
   108   -3.877476135011e-12
   109   -1.536309991241e-12
   110    1.007377729205e-10
   111    4.927792619831e-10
   112   -9.905451403264e-04
   113   -2.853749319297e-14
   114   -6.782365887101e-13
   115    8.979852512507e-06
   116    6.763548349230e-05
   117    3.620701798486e-04
   118    1.170074458575e-03
   119    2.879005883923e-03
   120    1.182205506950e-03
   121    8.598350710330e-03
   122    9.609240588366e-03
   123    6.873622394272e-14
   124    1.709848973524e-02
   125   -2.610023036462e-02
   126    1.456182794039e-02
   127    1.188025285717e-13
   128    2.599811605624e-02
   129   -4.281097588020e-02
   130    1.763443598950e-02
   131    3.571192457168e-14
   132    1.448516643020e-02
   133    1.503308464917e-01
   134   -2.556542616368e-01
   135   -7.464153475146e-14
   136   -2.434790915476e-01
   137    9.281171893190e-03
   138   -4.283506608710e-02
   139    6.569739539936e-12
   140   -1.248616363793e-02
   141    2.786355977288e-03
   142    7.698231595364e-03
   143    4.283916481344e-15
   144   -2.185113256160e-03
   145   -3.427901221854e-14
   146   -1.036149516200e-02
   147   -2.043952126505e-02
   148   -1.192028541885e-02
   149    3.641720286020e-02
   150    6.155005722954e-04
   151   -1.541824288060e-15
   152   -6.626801462668e-05
   153   -5.941074421932e-05
   154   -4.492448240831e-04
   155   -2.378808819138e-03
   156   -7.762487478799e-03
   157   -1.905768571408e-02
   158   -7.381544560783e-03
   159   -5.109935327171e-02
   160    9.145506973613e-02
   161    1.941018372289e-13
   162    1.863085126298e-02
   163    1.314538718942e-01
   164    1.429456369447e-01
   165    3.316146033171e-13
   166    3.064651803101e-02
   167    2.062520042076e-01
   168    5.100521905848e-02
   169    2.586039095759e-13
   170    6.084541352714e-02
   171   -1.101397531488e+00
   172    4.443057142475e-01
   173    1.498438728595e-13
   174   -4.159857992083e-01
   175   -2.723599749517e-02
   176    5.338283048187e-02
   177   -6.586917053304e-12
   178    1.290257061173e-02
   179   -7.976693749137e-04
   180    1.364018452484e-02
   181    3.010533351468e-14
   182    5.822005181241e-03
   183   -2.065164196645e-14
   184    1.062291170130e-01
   185    1.618985432784e-01
   186    2.957966894024e-02
   187   -7.760367265897e-02
   188   -1.194018863257e-02
   189    4.593085232579e-14
   190   -1.078797974651e-02
   191   -3.866883890897e-15
   192   -3.053170141611e-14
   193   -1.525194721259e-13
   194   -5.230030740579e-13
   195   -1.037887538299e-12
   196    9.669853326051e-13
   197   -2.579598000817e-12
   198   -5.008555520308e-02
   199    2.582912904961e-13
   200   -4.743548348041e-12
   201   -4.030340632308e-12
   202   -7.232323759753e-02
   203    4.405581890500e-13
   204   -1.048612398106e-11
   205    1.698745578432e-10
   206   -1.620232856675e-01
   207    4.205683032202e-13
   208   -1.685888602185e-11
   209    4.932353704691e-10
   210    9.673171130607e-01
   211   -1.508259822259e-13
   212   -1.289405436649e-10
   213    1.442648171009e-10
   214   -1.870321180486e-02
   215    6.284439875547e-12
   216    3.202700543004e-10
   217   -2.282905430267e-12
   218   -6.426766474541e-03
   219   -5.012059534145e-14
   220   -3.644279616581e-13
   221   -2.916129670144e-14
   222   -3.846346375231e-12
   223   -9.040413545763e-12
   224    1.156310067808e-11
   225    1.697638931875e-11
   226   -1.021966104078e-11
   227   -3.043353320922e-11
   228    2.137178323805e-01
   229   -2.107955075596e-11
   230    3.395660325204e-11
   231    5.150156348049e-02
   232   -5.618472737475e-12
   233    9.093993856737e-12
   234   -1.510624856930e-01
   235   -1.200821436835e-12
   236    4.949910303592e-12
   237   -3.583669654218e-01
   238   -8.035227753569e-13
   239    7.332980885263e-12
   240   -2.258200357950e-01
   241   -6.424256186143e-13
   242    2.360378864834e-11
   243   -2.015065011562e-11
   244   -6.050307239556e-03
   245    1.512709932172e-13
   246    2.071578764847e-11
   247   -4.289769137280e-10
   248   -1.923340311128e-02
   249    1.911346743102e-13
   250    2.046180414111e-11
   251   -2.389846381572e-12
   252    9.537029410620e-03
   253    1.755324670380e-14
   254   -2.104047288125e-12
   255   -2.067277089566e-15
Sym=X
Ene= 2.000023
Spin=Alpha
Occup=1
     1    1.264429167660e-01
     2    1.897215155390e-01
     3    2.028297020035e-02
     4   -2.481418595566e-02
     5    1.724693216802e-02
     6   -2.651791074739e-14
     7   -1.088348048720e-02
     8   -9.311609301445e-05
     9   -7.032885871227e-04
    10   -3.730468036874e-03
    11   -1.215328807850e-02
    12   -3.013413279332e-02
    13   -1.329366644708e-02
    14   -7.935016919756e-02
    15   -8.587799818370e-02
    16   -4.062009997647e-13
    17    4.803176391750e-02
    18    2.142131822497e-01
    19   -1.310584389120e-01
    20   -6.617500043895e-13
    21    7.208868613040e-02
    22    1.905072676728e-01
    23   -6.681391739191e-02
    24   -4.748671967857e-13
    25    4.387655784276e-02
    26   -8.857597744806e-02
    27   -6.458445663849e-02
    28    9.869971167150e-14
    29    2.675841065361e-02
    30   -1.261075847703e-02
    31    6.521136952305e-03
    32   -9.346228542635e-13
    33    2.849639716267e-03
    34    9.035699068123e-05
    35   -1.162597551595e-02
    36    4.585483985123e-14
    37    8.366706023218e-03
    38   -4.839512839277e-14
    39    5.226812780388e-06
    40    3.912727822415e-05
    41    2.133600212572e-04
    42    6.792236729655e-04
    43    1.648934845676e-03
    44    4.082375063823e-04
    45    6.056028761362e-03
    46   -8.202642395950e-03
    47   -5.060006889012e-13
    48    1.222474463386e-02
    49   -1.881169093922e-02
    50   -1.210713419482e-02
    51   -9.246984141184e-13
    52    2.001988571192e-02
    53   -4.281771803591e-02
    54   -8.287835765116e-03
    55   -6.618779514087e-13
    56   -3.083372199062e-03
    57   -1.063867782753e-01
    58   -1.914158886677e-02
    59   -1.097477452935e-13
    60   -2.946366478006e-02
    61   -1.620728251385e-02
    62   -1.123533974720e-02
    63    7.429789870804e-13
    64    6.109048024736e-04
    65    4.008497824836e-03
    66   -8.923645170116e-03
    67   -2.392771303927e-14
    68   -3.426194147908e-03
    69   -8.540077566387e-14
    70   -8.172746937618e-03
    71   -1.632031089361e-02
    72   -1.140121242792e-02
    73   -1.008076167174e-02
    74    2.860117688669e-04
    75   -3.950294963109e-14
    76    4.240578513273e-04
    77    2.913218343382e-05
    78    2.220170292337e-04
    79    1.164954941533e-03
    80    3.933337269733e-03
    81    9.892174905652e-03
    82   -2.736706425222e-03
    83    2.387301226136e-02
    84   -1.372359485409e-12
    85   -5.829547163172e-13
    86    2.081238183025e-03
    87   -6.074066270510e-02
    88    8.928751726959e-12
    89   -9.661176062115e-13
    90    1.947841678752e-03
    91    1.455261724504e-02
    92   -1.943503252105e-10
    93   -7.994200990697e-13
    94    2.025063312246e-02
    95    1.432178601430e-01
    96    6.783176316169e-10
    97    8.322702514763e-14
    98    9.942386148895e-02
    99   -2.457719938470e-03
   100   -2.084478054244e-10
   101   -8.581543672193e-13
   102   -3.616255419019e-03
   103   -2.099285354650e-04
   104    5.199457237274e-12
   105   -8.337362655998e-14
   106   -4.984764616872e-03
   107    1.358366469119e-15
   108   -1.210933275543e-02
   109   -1.853599618363e-02
   110    8.512730941206e-03
   111    5.752777677199e-02
   112   -2.272802289274e-12
   113   -3.484877017861e-14
   114   -2.662133640580e-03
   115    5.226813176878e-06
   116    3.912728129249e-05
   117    2.133600365362e-04
   118    6.792237255022e-04
   119    1.648934969645e-03
   120    4.082375514559e-04
   121    6.056028923402e-03
   122    8.202642373246e-03
   123   -4.936674920443e-13
   124    1.222474464676e-02
   125   -1.881169092110e-02
   126    1.210713417189e-02
   127   -9.157133590355e-13
   128    2.001988571719e-02
   129   -4.281771757084e-02
   130    8.287835303725e-03
   131   -6.402230649691e-13
   132   -3.083371811324e-03
   133   -1.063867678955e-01
   134    1.914158398125e-02
   135   -1.115130003983e-13
   136   -2.946366094901e-02
   137   -1.620728175034e-02
   138    1.123533990283e-02
   139    8.621380840365e-13
   140    6.109047890918e-04
   141    4.008497820550e-03
   142    8.923645168819e-03
   143   -2.559382089719e-14
   144   -3.426194144695e-03
   145    8.254065115216e-14
   146   -8.172746928494e-03
   147   -1.632031088383e-02
   148   -1.140121137684e-02
   149   -1.008075832052e-02
   150   -2.860117642129e-04
   151   -3.866187145589e-14
   152    4.240578510189e-04
   153   -9.311609234604e-05
   154   -7.032885819489e-04
   155   -3.730468011064e-03
   156   -1.215328798989e-02
   157   -3.013413258391e-02
   158   -1.329366637017e-02
   159   -7.935016891784e-02
   160    8.587799820387e-02
   161   -3.973956727085e-13
   162    4.803176393324e-02
   163    2.142131822559e-01
   164    1.310584389308e-01
   165   -6.297287714729e-13
   166    7.208868613633e-02
   167    1.905072674315e-01
   168    6.681391780781e-02
   169   -4.655315178868e-13
   170    4.387655832337e-02
   171   -8.857598508229e-02
   172    6.458446140846e-02
   173    1.055296251768e-13
   174    2.675841513587e-02
   175   -1.261075891231e-02
   176   -6.521137090001e-03
   177   -1.057696113177e-12
   178    2.849640308475e-03
   179    9.035699546189e-05
   180    1.162597551602e-02
   181    5.454061008190e-14
   182    8.366706020557e-03
   183    4.749344338989e-14
   184    1.264429167611e-01
   185    1.897215155448e-01
   186    2.028296896916e-02
   187   -2.481418967139e-02
   188   -1.724693217302e-02
   189   -1.891996093807e-14
   190   -1.088348048858e-02
   191    1.909834588166e-05
   192    1.497493030428e-04
   193    7.297517707913e-04
   194    2.558713078073e-03
   195    5.552328324142e-03
   196   -1.784174672024e-04
   197    7.801309900672e-03
   198    1.066111519335e-12
   199   -3.051914956885e-13
   200    1.465219291255e-02
   201    9.432689383262e-03
   202   -1.608893233036e-12
   203   -5.843224953922e-13
   204    2.182947797384e-02
   205   -4.663343407161e-02