[Molden Format]
[Atoms] (Angs)
  H      1    1     -2.14003202      0.00000000      0.38146042
  C      2    6     -1.21205832      0.00000000     -0.17180643
  C      3    6     -1.20429565      0.00000000     -1.56369320
  H      4    1     -2.14371879      0.00000000     -2.09923439
  C      5    6     -0.00000000      0.00000000     -2.26269040
  H      6    1     -0.00000000      0.00000000     -3.34354440
  C      7    6      1.20429565      0.00000000     -1.56369320
  H      8    1      2.14371879      0.00000000     -2.09923439
  C      9    6      1.21205832     -0.00000000     -0.17180643
  H     10    1      2.14003202     -0.00000000      0.38146042
  C     11    6      0.00000000     -0.00000000      0.51110416
 Cl     12   17      0.00000000     -0.00000000      2.24203561
[GTO]
1    0
S    3    1.000000
   3.38650000E+01    2.54938000E-02 
   5.09479000E+00    1.90373000E-01 
   1.15879000E+00    8.52161000E-01 
S    1    1.000000
   3.25840000E-01    1.00000000E+00 
S    1    1.000000
   1.02741000E-01    1.00000000E+00 
S    1    1.000000
   3.60000000E-02    1.00000000E+00 
P    1    1.000000
   7.50000000E-01    1.00000000E+00 

2    0
S    1    1.000000
   4.56324000E+03    1.96665000E-03 
S    1    1.000000
   6.82024000E+02    1.52306000E-02 
S    1    1.000000
   1.54973000E+02    7.61269000E-02 
S    1    1.000000
   4.44553000E+01    2.60801000E-01 
S    1    1.000000
   1.30290000E+01    6.16462000E-01 
S    1    1.000000
   1.82773000E+00    2.21006000E-01 
SP   3    1.000000
   2.09642000E+01    1.14660000E-01   4.02487000E-02 
   4.80331000E+00    9.19999000E-01   2.37594000E-01 
   1.45933000E+00   -3.03068000E-03   8.15854000E-01 
SP   1    1.000000
   4.83456000E-01    1.00000000E+00   1.00000000E+00 
SP   1    1.000000
   1.45585000E-01    1.00000000E+00   1.00000000E+00 
SP   1    1.000000
   4.38000000E-02    1.00000000E+00   1.00000000E+00 
SP   1    1.000000
   1.31927711E-02    1.00000000E+00   1.00000000E+00 
D    1    1.000000
   6.26000000E-01    1.00000000E+00 

3    0
S    1    1.000000
   4.56324000E+03    1.96665000E-03 
S    1    1.000000
   6.82024000E+02    1.52306000E-02 
S    1    1.000000
   1.54973000E+02    7.61269000E-02 
S    1    1.000000
   4.44553000E+01    2.60801000E-01 
S    1    1.000000
   1.30290000E+01    6.16462000E-01 
S    1    1.000000
   1.82773000E+00    2.21006000E-01 
SP   3    1.000000
   2.09642000E+01    1.14660000E-01   4.02487000E-02 
   4.80331000E+00    9.19999000E-01   2.37594000E-01 
   1.45933000E+00   -3.03068000E-03   8.15854000E-01 
SP   1    1.000000
   4.83456000E-01    1.00000000E+00   1.00000000E+00 
SP   1    1.000000
   1.45585000E-01    1.00000000E+00   1.00000000E+00 
SP   1    1.000000
   4.38000000E-02    1.00000000E+00   1.00000000E+00 
SP   1    1.000000
   1.31927711E-02    1.00000000E+00   1.00000000E+00 
D    1    1.000000
   6.26000000E-01    1.00000000E+00 

4    0
S    3    1.000000
   3.38650000E+01    2.54938000E-02 
   5.09479000E+00    1.90373000E-01 
   1.15879000E+00    8.52161000E-01 
S    1    1.000000
   3.25840000E-01    1.00000000E+00 
S    1    1.000000
   1.02741000E-01    1.00000000E+00 
S    1    1.000000
   3.60000000E-02    1.00000000E+00 
P    1    1.000000
   7.50000000E-01    1.00000000E+00 

5    0
S    1    1.000000
   4.56324000E+03    1.96665000E-03 
S    1    1.000000
   6.82024000E+02    1.52306000E-02 
S    1    1.000000
   1.54973000E+02    7.61269000E-02 
S    1    1.000000
   4.44553000E+01    2.60801000E-01 
S    1    1.000000
   1.30290000E+01    6.16462000E-01 
S    1    1.000000
   1.82773000E+00    2.21006000E-01 
SP   3    1.000000
   2.09642000E+01    1.14660000E-01   4.02487000E-02 
   4.80331000E+00    9.19999000E-01   2.37594000E-01 
   1.45933000E+00   -3.03068000E-03   8.15854000E-01 
SP   1    1.000000
   4.83456000E-01    1.00000000E+00   1.00000000E+00 
SP   1    1.000000
   1.45585000E-01    1.00000000E+00   1.00000000E+00 
SP   1    1.000000
   4.38000000E-02    1.00000000E+00   1.00000000E+00 
SP   1    1.000000
   1.31927711E-02    1.00000000E+00   1.00000000E+00 
D    1    1.000000
   6.26000000E-01    1.00000000E+00 

6    0
S    3    1.000000
   3.38650000E+01    2.54938000E-02 
   5.09479000E+00    1.90373000E-01 
   1.15879000E+00    8.52161000E-01 
S    1    1.000000
   3.25840000E-01    1.00000000E+00 
S    1    1.000000
   1.02741000E-01    1.00000000E+00 
S    1    1.000000
   3.60000000E-02    1.00000000E+00 
P    1    1.000000
   7.50000000E-01    1.00000000E+00 

7    0
S    1    1.000000
   4.56324000E+03    1.96665000E-03 
S    1    1.000000
   6.82024000E+02    1.52306000E-02 
S    1    1.000000
   1.54973000E+02    7.61269000E-02 
S    1    1.000000
   4.44553000E+01    2.60801000E-01 
S    1    1.000000
   1.30290000E+01    6.16462000E-01 
S    1    1.000000
   1.82773000E+00    2.21006000E-01 
SP   3    1.000000
   2.09642000E+01    1.14660000E-01   4.02487000E-02 
   4.80331000E+00    9.19999000E-01   2.37594000E-01 
   1.45933000E+00   -3.03068000E-03   8.15854000E-01 
SP   1    1.000000
   4.83456000E-01    1.00000000E+00   1.00000000E+00 
SP   1    1.000000
   1.45585000E-01    1.00000000E+00   1.00000000E+00 
SP   1    1.000000
   4.38000000E-02    1.00000000E+00   1.00000000E+00 
SP   1    1.000000
   1.31927711E-02    1.00000000E+00   1.00000000E+00 
D    1    1.000000
   6.26000000E-01    1.00000000E+00 

8    0
S    3    1.000000
   3.38650000E+01    2.54938000E-02 
   5.09479000E+00    1.90373000E-01 
   1.15879000E+00    8.52161000E-01 
S    1    1.000000
   3.25840000E-01    1.00000000E+00 
S    1    1.000000
   1.02741000E-01    1.00000000E+00 
S    1    1.000000
   3.60000000E-02    1.00000000E+00 
P    1    1.000000
   7.50000000E-01    1.00000000E+00 

9    0
S    1    1.000000
   4.56324000E+03    1.96665000E-03 
S    1    1.000000
   6.82024000E+02    1.52306000E-02 
S    1    1.000000
   1.54973000E+02    7.61269000E-02 
S    1    1.000000
   4.44553000E+01    2.60801000E-01 
S    1    1.000000
   1.30290000E+01    6.16462000E-01 
S    1    1.000000
   1.82773000E+00    2.21006000E-01 
SP   3    1.000000
   2.09642000E+01    1.14660000E-01   4.02487000E-02 
   4.80331000E+00    9.19999000E-01   2.37594000E-01 
   1.45933000E+00   -3.03068000E-03   8.15854000E-01 
SP   1    1.000000
   4.83456000E-01    1.00000000E+00   1.00000000E+00 
SP   1    1.000000
   1.45585000E-01    1.00000000E+00   1.00000000E+00 
SP   1    1.000000
   4.38000000E-02    1.00000000E+00   1.00000000E+00 
SP   1    1.000000
   1.31927711E-02    1.00000000E+00   1.00000000E+00 
D    1    1.000000
   6.26000000E-01    1.00000000E+00 

10    0
S    3    1.000000
   3.38650000E+01    2.54938000E-02 
   5.09479000E+00    1.90373000E-01 
   1.15879000E+00    8.52161000E-01 
S    1    1.000000
   3.25840000E-01    1.00000000E+00 
S    1    1.000000
   1.02741000E-01    1.00000000E+00 
S    1    1.000000
   3.60000000E-02    1.00000000E+00 
P    1    1.000000
   7.50000000E-01    1.00000000E+00 

11    0
S    1    1.000000
   4.56324000E+03    1.96665000E-03 
S    1    1.000000
   6.82024000E+02    1.52306000E-02 
S    1    1.000000
   1.54973000E+02    7.61269000E-02 
S    1    1.000000
   4.44553000E+01    2.60801000E-01 
S    1    1.000000
   1.30290000E+01    6.16462000E-01 
S    1    1.000000
   1.82773000E+00    2.21006000E-01 
SP   3    1.000000
   2.09642000E+01    1.14660000E-01   4.02487000E-02 
   4.80331000E+00    9.19999000E-01   2.37594000E-01 
   1.45933000E+00   -3.03068000E-03   8.15854000E-01 
SP   1    1.000000
   4.83456000E-01    1.00000000E+00   1.00000000E+00 
SP   1    1.000000
   1.45585000E-01    1.00000000E+00   1.00000000E+00 
SP   1    1.000000
   4.38000000E-02    1.00000000E+00   1.00000000E+00 
SP   1    1.000000
   1.31927711E-02    1.00000000E+00   1.00000000E+00 
D    1    1.000000
   6.26000000E-01    1.00000000E+00 

12    0
S    6    1.000000
   1.05819000E+05    7.38000000E-04 
   1.58720000E+04    5.71800000E-03 
   3.61965000E+03    2.94950000E-02 
   1.03080000E+03    1.17286000E-01 
   3.39908000E+02    3.62949000E-01 
   1.24538000E+02    5.84149000E-01 
S    3    1.000000
   1.24538000E+02    1.34177000E-01 
   4.95135000E+01    6.24250000E-01 
   2.08056000E+01    2.91756000E-01 
S    1    1.000000
   6.58346000E+00    1.00000000E+00 
S    1    1.000000
   2.56468000E+00    1.00000000E+00 
S    1    1.000000
   5.59763000E-01    1.00000000E+00 
S    1    1.000000
   1.83273000E-01    1.00000000E+00 
P    5    1.000000
   5.89776000E+02    2.39100000E-03 
   1.39849000E+02    1.85040000E-02 
   4.51413000E+01    8.13770000E-02 
   1.68733000E+01    2.21552000E-01 
   6.74110000E+00    7.72569000E-01 
P    2    1.000000
   6.74110000E+00   -1.57224400E+00 
   2.77152000E+00    9.92389000E-01 
P    1    1.000000
   1.02387000E+00    1.00000000E+00 
P    1    1.000000
   3.81368000E-01    1.00000000E+00 
P    1    1.000000
   1.09437000E-01    1.00000000E+00 
SP   1    1.000000
   4.83000000E-02    1.00000000E+00   1.00000000E+00 
SP   1    1.000000
   1.45481928E-02    1.00000000E+00   1.00000000E+00 
D    1    1.000000
   7.50000000E-01    1.00000000E+00 

[MO]
Sym=X
Ene= 2.001574
Spin=Alpha
Occup=1
     1    1.431899211460e-12
     2    2.378652135656e-12
     3    7.153841883231e-13
     4   -3.493199315950e-12
     5    1.840885171483e-13
     6    6.261456547461e-03
     7    7.686818328936e-14
     8    1.692456425666e-15
     9    8.687608700990e-15
    10    5.032160710923e-14
    11    1.675920488056e-13
    12    4.288795385097e-13
    13    1.733783224483e-13
    14    5.980983410849e-13
    15    2.347199225353e-15
    16    9.067695613662e-02
    17    3.343968718224e-12
    18   -4.772414389341e-13
    19   -7.955625931197e-14
    20    1.561238733244e-01
    21    5.032009010471e-12
    22   -1.638273335529e-12
    23   -8.296985712196e-13
    24    1.362877028000e-01
    25    3.160859547868e-12
    26    4.507914459765e-12
    27    8.271226948726e-15
    28   -2.080217322201e-02
    29    7.086278729264e-12
    30   -3.336314799902e-13
    31   -3.369517701230e-12
    32    6.501876914874e-02
    33   -4.094709473371e-12
    34   -5.853701137491e-13
    35   -1.954703005681e-13
    36   -4.348688408994e-03
    37    2.906287347721e-13
    38    1.578419740093e-02
    39   -3.444060523324e-16
    40    9.867693336172e-16
    41    5.618520612400e-16
    42    5.027727223044e-15
    43   -3.111075361310e-15
    44   -1.120681247108e-14
    45    1.335681589390e-14
    46    2.233388464776e-13
    47    5.204781441050e-02
    48   -3.433955512095e-12
    49    2.167641992952e-13
    50    2.848856035897e-13
    51    9.029919502809e-02
    52   -5.143842130771e-12
    53   -1.341711151513e-13
    54   -9.388783412602e-13
    55    5.541478090356e-02
    56   -3.602161270612e-12
    57   -8.540197616211e-12
    58   -7.299599973676e-12
    59    1.664642543668e-02
    60   -7.745776611100e-13
    61    4.022687893379e-13
    62    1.169122884282e-12
    63   -5.537715615444e-02
    64    8.703899260264e-13
    65   -6.806498622961e-13
    66    2.014846259608e-13
    67    1.253579795184e-02
    68    3.930060733988e-13
    69    7.097968635603e-03
    70    1.614815221368e-12
    71    2.552513660150e-12
    72    3.650436219830e-13
    73   -4.966641699261e-12
    74    2.443458575751e-13
    75    3.263773336484e-03
    76   -1.202580063605e-13
    77   -1.220711077322e-16
    78    7.886578679293e-16
    79    7.445808367958e-15
    80    1.778645072649e-14
    81    5.268429758387e-14
    82    6.671696023806e-15
    83    1.163334163328e-13
    84   -8.475838886449e-14
    85    3.936259937462e-02
    86    3.517789809072e-12
    87   -8.315972790056e-14
    88   -6.366322634409e-14
    89    4.801741092977e-02
    90    5.442464152278e-12
    91    3.259831713711e-13
    92   -5.802025524513e-14
    93    7.282573794360e-03
    94    5.150138727390e-12
    95    1.424857854500e-11
    96   -2.568568817817e-12
    97   -2.715244130858e-02
    98    3.475632271359e-12
    99    3.083750928827e-12
   100    1.748964915606e-13
   101    4.799101092445e-02
   102   -5.296192488809e-13
   103   -9.802389695245e-13
   104   -3.690817936851e-14
   105    1.148189624922e-02
   106    5.723038077081e-13
   107    4.520256847929e-15
   108   -3.410436424000e-12
   109   -5.181944003357e-12
   110   -1.643381062812e-12
   111   -1.228492723190e-12
   112   -2.736014476434e-15
   113    1.158455192832e-03
   114   -3.485672355296e-13
   115   -4.586136253751e-16
   116    1.055573882449e-15
   117    2.786755988412e-16
   118    1.246763901338e-16
   119    2.344933898306e-14
   120    5.080677326741e-14
   121    1.388828073916e-15
   122   -8.915897059557e-14
   123    5.204781441053e-02
   124   -3.627963458702e-12
   125   -2.428734563222e-13
   126   -6.298326841372e-14
   127    9.029919502805e-02
   128   -5.514016299953e-12
   129   -3.624775981031e-13
   130    1.369540180477e-12
   131    5.541478090342e-02
   132   -3.725514132657e-12
   133   -4.788201630822e-12
   134    1.999811549120e-12
   135    1.664642543633e-02
   136   -4.631652746793e-12
   137    1.248366464423e-12
   138   -4.632706854445e-13
   139   -5.537715615887e-02
   140    1.520706642806e-12
   141   -7.088275934226e-13
   142   -2.899111195830e-13
   143    1.253579795184e-02
   144    3.972819820888e-13
   145   -7.097968635569e-03
   146    1.733610658047e-12
   147    2.766277104968e-12
   148    4.116222537159e-13
   149   -4.346804044420e-12
   150   -2.310346966218e-13
   151    3.263773336515e-03
   152   -1.179355363841e-13
   153    3.046963339753e-16
   154    2.709611071921e-15
   155    1.546382596447e-14
   156    4.927820437109e-14
   157    1.372026851850e-13
   158    9.111319857414e-14
   159    2.233923929753e-13
   160   -6.347989787125e-13
   161    9.067695613654e-02
   162    3.630059332919e-12
   163   -6.342031847363e-13
   164   -8.955158373173e-13
   165    1.561238733244e-01
   166    5.448536816601e-12
   167    2.552790473433e-13
   168   -6.996701587557e-14
   169    1.362877028000e-01
   170    3.864877339595e-12
   171   -2.093053140697e-11
   172    9.038937139579e-12
   173   -2.080217322231e-02
   174   -1.132706136303e-12
   175   -4.697491577478e-13
   176   -7.038144658272e-13
   177    6.501876915425e-02
   178   -5.785402165234e-12
   179   -6.188527168954e-13
   180    9.590271548786e-14
   181   -4.348688409006e-03
   182    3.211960975651e-13
   183   -1.578419740093e-02
   184    1.185042856793e-12
   185    2.113208787228e-12
   186   -2.133422567538e-13
   187   -3.505385059134e-12
   188   -1.678890452036e-13
   189    6.261456547454e-03
   190    1.188849692101e-13
   191   -3.813981323668e-16
   192   -7.981906931968e-15
   193   -3.474193070106e-14
   194   -1.255484265377e-13
   195   -2.623297566726e-13
   196   -2.654568451079e-15
   197   -7.070909988557e-13
   198    3.827147603851e-13
   199    8.895713073219e-02
   200   -2.627252388845e-12
   201    1.085416853589e-12
   202    5.753476899750e-13
   203    1.512616205091e-01
   204   -4.674044930080e-12
   205    2.555759981333e-13
   206   -1.943527498574e-13
   207    1.344646720202e-01
   208   -4.323439090525e-12
   209    7.016670836895e-12
   210    9.592621999866e-12
   211    3.109114793819e-02
   212   -2.460748962367e-11
   213    1.370044123584e-12
   214    2.114102857330e-12
   215   -4.170486454327e-02
   216    1.143329404335e-11
   217   -1.124227110361e-12
   218   -1.178761864955e-13
   219   -3.081572972958e-02
   220    4.902383249580e-13
   221   -3.693134348164e-15
   222    8.514347626569e-14
   223    3.859245164361e-13
   224   -1.047490007113e-12
   225   -1.545501191317e-12
   226    1.267342630643e-12
   227    2.993389144698e-12
   228    8.141240544803e-13
   229    2.326478266811e-01
   230   -5.028507117882e-12
   231    1.907506526674e-13
   232    5.567865760601e-02
   233   -1.222151185478e-12
   234   -7.824986404433e-13
   235   -1.703641947938e-01
   236    3.816984759606e-12
   237   -1.801955300068e-12
   238   -4.115247040637e-01
   239    8.620561977727e-12
   240   -1.269162403571e-12
   241   -3.009198676382e-01
   242    3.161953088051e-12
   243    2.562997197525e-11
   244   -7.331113074480e-14
   245    4.881110756536e-02
   246   -6.415679786846e-12
   247   -1.286617773060e-12
   248    1.821448401138e-14
   249   -3.447740889942e-02
   250   -2.030473351046e-12
   251   -9.973116077776e-13
   252   -1.070798775567e-14
   253   -4.422166127361e-03
   254    7.441838001379e-14
   255    2.755988148119e-15
Sym=X
Ene= 2.000425
Spin=Alpha
Occup=1
     1    1.008465735935e-01
     2    1.523544443102e-01
     3    3.059949592665e-02
     4   -2.175363470752e-02
     5    8.363984073095e-03
     6   -1.193217687574e-14
     7   -1.099121678734e-02
     8   -1.633879176318e-05
     9   -1.239996533606e-04
    10   -6.525123874202e-04
    11   -2.140064964539e-03
    12   -5.101437380245e-03
    13   -1.108004707623e-03
    14   -1.417590230887e-02
    15   -1.354991899503e-01
    16   -3.808154178367e-13
    17   -2.126528083334e-02
    18    2.916493367581e-02
    19   -2.121346380787e-01
    20   -6.654164079181e-13
    21   -3.117001281575e-02
    22    1.207152621921e-01
    23   -1.030784810551e-01
    24   -4.735703802724e-13
    25    3.814899007871e-02
    26   -6.706736923316e-01
    27   -2.400150733105e-01
    28    1.676268088870e-13
    29   -2.215062131643e-01
    30   -1.857466083653e-02
    31   -3.205350479489e-02
    32    4.859515500592e-12
    33   -1.317974738401e-02
    34    8.188135916222e-04
    35   -2.113048339102e-02
    36    1.769588690960e-14
    37    1.234114984927e-03
    38   -8.374559389963e-14
    39    9.614487477580e-06
    40    7.249939191717e-05
    41    3.855251249141e-04
    42    1.252637174900e-03
    43    3.138564135328e-03
    44    1.566497039501e-03
    45    8.161982302473e-03
    46   -1.029383774696e-02
    47   -2.050306398905e-13
    48    3.184093909682e-02
    49   -2.284367083571e-02
    50   -1.629064740730e-02
    51   -3.588005009207e-13
    52    4.849522394512e-02
    53   -2.360769731049e-02
    54   -3.538660205290e-03
    55   -2.427687850191e-13
    56    3.661975396861e-02
    57    1.179168420516e-01
    58    1.433190555085e-01
    59   -2.514439403350e-13
    60   -1.327695946158e-01
    61    8.124437549276e-03
    62    2.346389396104e-02
    63   -4.773000817974e-12
    64    1.125038179215e-03
    65    2.709481860018e-03
    66   -1.260110336721e-02
    67   -7.084987099217e-14
    68   -2.816634963823e-03
    69    7.231563805011e-15
    70   -1.735850966711e-02
    71   -3.080111145895e-02
    72   -1.458290210917e-02
    73    1.622690702122e-02
    74   -1.006435124446e-03
    75   -2.243874442790e-14
    76    3.351028164670e-05
    77    1.108940716511e-14
    78    8.923555755123e-14
    79    4.512014015391e-13
    80    1.569348650988e-12
    81    1.977601769738e-12
    82   -9.381787944502e-12
    83    1.667400478499e-11
    84    3.546971139121e-02
    85   -8.005964418815e-14
    86    1.307314582387e-11
    87    1.844467825827e-11
    88    4.366631161746e-02
    89   -1.270456546276e-13
    90   -4.727246609009e-12
    91   -1.028216484777e-09
    92   -1.692845273632e-02
    93    2.198737636398e-14
    94    3.660987711111e-10
    95    8.098547346254e-09
    96    1.801993321027e-01
    97    3.078383826401e-13
    98    7.002706624564e-09
    99    2.192391199770e-10
   100   -1.203290299670e-02
   101    4.598105511280e-12
   102    1.625019223659e-10
   103   -6.345397044360e-12
   104    5.076688805960e-03
   105    6.091264177915e-15
   106    8.248669705575e-12
   107    9.081474856066e-15
   108   -1.574857067040e-12
   109   -6.861538957746e-11
   110    1.621645183209e-09
   111    4.378323183078e-09
   112    1.007230417574e-03
   113   -4.485166690687e-14
   114   -2.441554089463e-12
   115   -9.614487494319e-06
   116   -7.249939204250e-05
   117   -3.855251255571e-04
   118   -1.252637177022e-03
   119   -3.138564142177e-03
   120   -1.566497052514e-03
   121   -8.161982300354e-03
   122   -1.029383776878e-02
   123   -1.026033218747e-13
   124   -3.184093914305e-02
   125    2.284367087261e-02
   126   -1.629064744308e-02
   127   -1.737523173874e-13
   128   -4.849522401811e-02
   129    2.360769615742e-02
   130   -3.538660514952e-03
   131   -1.027780722938e-13
   132   -3.661975504037e-02
   133   -1.179168521749e-01
   134    1.433190573174e-01
   135   -2.415073815784e-13
   136    1.327695925831e-01
   137   -8.124438812512e-03
   138    2.346389411754e-02
   139   -4.756420688132e-12
   140   -1.125038297145e-03
   141   -2.709481841320e-03
   142   -1.260110336220e-02
   143   -6.401565529892e-14
   144    2.816634954510e-03
   145    2.533455541841e-14
   146    1.735850965281e-02
   147    3.080111138232e-02
   148    1.458290237450e-02
   149   -1.622690729692e-02
   150   -1.006435128378e-03
   151    1.471960269227e-14
   152   -3.351028352491e-05
   153    1.633879171499e-05
   154    1.239996529922e-04
   155    6.525123855565e-04
   156    2.140064958196e-03
   157    5.101437366172e-03
   158    1.108004708261e-03
   159    1.417590227821e-02
   160   -1.354991899062e-01
   161   -2.747863127960e-13
   162    2.126528079013e-02
   163   -2.916493366495e-02
   164   -2.121346380474e-01
   165   -4.714048590375e-13
   166    3.117001276094e-02
   167   -1.207152612008e-01
   168   -1.030784799932e-01
   169   -3.327383939464e-13
   170   -3.814899117338e-02
   171    6.706736841823e-01
   172   -2.400150659275e-01
   173    2.132775698104e-13
   174    2.215062174163e-01
   175    1.857465990142e-02
   176   -3.205350432655e-02
   177    4.841167448204e-12
   178    1.317974790653e-02
   179   -8.188136107499e-04
   180   -2.113048339809e-02
   181    2.956907567653e-14
   182   -1.234114984700e-03
   183    8.845220669544e-14
   184   -1.008465736018e-01
   185   -1.523544442446e-01
   186   -3.059949780012e-02
   187    2.175362889334e-02
   188    8.363984070770e-03
   189    5.331944653136e-15
   190    1.099121677905e-02
   191   -1.103983879986e-14
   192   -8.646669425493e-14
   193   -4.320227663076e-13
   194   -1.497215219327e-12
   195   -2.304694427191e-12
   196    6.754998539051e-12
   197   -1.406977182931e-11
   198    1.445850055433e-01
   199   -5.223442274403e-13
   200   -6.043346868591e-13
   201   -1.578503468892e-11
   202    2.221451123916e-01
   203   -9.168032490411e-13
   204    1.171842775611e-11
   205    1.125693435162e-09
   206    2.102758223286e-01
   207   -7.733511302683e-13
   208   -2.072780597320e-10
   209    8.673162194488e-09
   210   -5.691036417211e-01
   211   -1.141677590202e-13
   212   -4.989002112406e-09
   213    9.071150002564e-11
   214    3.493453336311e-02
   215   -4.741665518486e-12
   216   -1.565047630755e-09
   217    1.082089699306e-11
   218   -1.417240466549e-02
   219    1.520249491608e-14
   220   -1.066083633276e-11
   221    2.229617107810e-14
   222    2.291200847891e-13
   223    3.587839516898e-13
   224    1.509159787018e-12
   225   -5.070690304855e-12
   226    3.343737752954e-11
   227   -2.137318097115e-10
   228   -9.151735764643e-02
   229    4.431236641069e-12
   230    1.064393299885e-11
   231   -2.206577620130e-02
   232    1.163944952171e-12
   233    2.505510878606e-12
   234    6.561759810281e-02
   235   -3.006332621599e-13
   236   -1.453294683497e-11
   237    1.538629357402e-01
   238   -1.087600411943e-12
   239   -2.917310584650e-11
   240    6.784196677099e-02
   241   -5.448559329241e-13
   242    9.921680493890e-11
   243    3.005728764842e-09
   244    2.626502937046e-02
   245    9.112820073171e-14
   246   -7.621247667918e-10
   247    2.369955652117e-09
   248   -1.192008135436e-02
   249   -1.701562393605e-13
   250   -1.550549562402e-10
   251    6.630729262257e-12
   252   -1.489441949403e-02
   253    1.027518961664e-13
   254   -1.484619525597e-11
   255   -1.139926542214e-14
Sym=X
Ene= 2.000107
Spin=Alpha
Occup=1
     1    1.236939881486e-01
     2    1.833389455743e-01
     3    9.777371402420e-03
     4   -4.322726190676e-02
     5    1.647761620741e-02
     6   -6.782733526149e-14
     7   -1.063856567367e-02
     8   -8.465831670625e-05
     9   -6.387077540380e-04
    10   -3.396800788126e-03
    11   -1.103893253571e-02
    12   -2.741392800596e-02
    13   -1.219315588369e-02
    14   -7.376138042280e-02
    15   -9.232243224079e-02
    16   -9.800463889023e-13
    17    3.811434165454e-02
    18    2.056893512450e-01
    19   -1.432528368002e-01
    20   -1.672789123548e-12
    21    5.657704681909e-02
    22    1.992575651895e-01
    23   -6.747918713221e-02
    24   -1.130745116299e-12
    25    4.788221769981e-02
    26   -1.893402354839e-01
    27   -1.004868275579e-01
    28    1.118388893634e-13
    29    5.162163911048e-02
    30   -1.806103874495e-02
    31    6.672865826908e-03
    32   -1.305979316132e-12
    33    8.434724194341e-03
    34   -9.399434383181e-05
    35   -1.505790002822e-02
    36    8.067673765419e-14
    37    6.661873896882e-03
    38   -1.501463993803e-13
    39    6.109305429488e-06
    40    4.594594910857e-05
    41    2.480228584159e-04
    42    7.963442315330e-04
    43    1.896707196121e-03
    44    2.662485016453e-04
    45    6.773396551494e-03
    46   -5.589231639067e-03
    47   -9.973925972509e-13
    48    1.795787967586e-02
    49   -1.926879054306e-02
    50   -8.087587199046e-03
    51   -1.764164498672e-12
    52    2.917079190946e-02
    53   -5.137288023119e-02
    54   -1.514885205916e-02
    55   -1.276518685043e-12
    56   -1.711918197750e-03
    57   -2.019576850212e-01
    58   -6.672470911888e-02
    59   -2.184896477807e-13
    60   -4.840590302751e-02
    61   -2.383944894047e-02
    62   -1.510232396180e-02
    63    1.109637667256e-12
    64   -6.190010515669e-04
    65    4.980785948180e-03
    66   -1.001591962790e-02
    67   -8.103410022334e-14
    68   -3.859083544398e-03
    69   -1.522390971204e-13
    70   -1.208483889688e-02
    71   -2.313823568187e-02
    72   -1.825210050237e-02
    73   -3.693718759865e-02
    74   -3.324678572215e-04
    75   -7.407902148554e-14
    76    9.032858824153e-05
    77    2.710655690938e-05
    78    2.066701156193e-04
    79    1.084089529575e-03
    80    3.656816758252e-03
    81    9.163292421129e-03
    82   -2.440520847768e-03
    83    2.230289674386e-02
    84   -2.632427861899e-12
    85   -1.063714045745e-12
    86   -2.103462223893e-04
    87   -5.708765273506e-02
    88    1.319145436764e-11
    89   -1.810063405371e-12
    90   -4.891050309786e-04
    91    3.063574679364e-02
    92   -2.786385550293e-10
    93   -1.353134877549e-12
    94    2.443498405730e-02
    95    3.279089345836e-01
    96   -1.650702817217e-09
    97    1.760414524519e-13
    98    1.506473103211e-01
    99    5.036387898595e-03
   100   -4.586239952140e-10
   101   -1.215616732720e-12
   102   -2.352205046409e-03
   103    1.544348438525e-03
   104    6.133119999595e-12
   105   -1.684824717019e-13
   106   -6.095177495835e-03
   107   -7.970523994378e-15
   108   -9.093197834905e-03
   109   -1.298084749787e-02
   110    1.239573416892e-02
   111    7.281515026457e-02
   112   -3.231225986466e-12
   113   -7.481692581703e-14
   114   -2.497757513278e-03
   115    6.109306172121e-06
   116    4.594595485526e-05
   117    2.480228870564e-04
   118    7.963443299440e-04
   119    1.896707428505e-03
   120    2.662485866024e-04
   121    6.773396858249e-03
   122    5.589231610888e-03
   123   -1.039461544274e-12
   124    1.795787969334e-02
   125   -1.926879052589e-02
   126    8.087587174141e-03
   127   -1.846003008756e-12
   128    2.917079191223e-02
   129   -5.137287956527e-02
   130    1.514885141568e-02
   131   -1.343416807751e-12
   132   -1.711917627374e-03
   133   -2.019576689250e-01
   134    6.672469818086e-02
   135   -2.183686159064e-13
   136   -4.840590178235e-02
   137   -2.383944777154e-02
   138    1.510232425976e-02
   139    1.201206356143e-12
   140   -6.190011301306e-04
   141    4.980785942875e-03
   142    1.001591962632e-02
   143   -9.040934376721e-14
   144   -3.859083540323e-03
   145    1.548281901291e-13
   146   -1.208483888697e-02
   147   -2.313823568292e-02
   148   -1.825209895307e-02
   149   -3.693718209261e-02
   150    3.324678634610e-04
   151   -7.629056166952e-14
   152    9.032858745556e-05
   153   -8.465831549437e-05
   154   -6.387077446573e-04
   155   -3.396800741323e-03
   156   -1.103893237504e-02
   157   -2.741392762623e-02
   158   -1.219315574438e-02
   159   -7.376137991446e-02
   160    9.232243227044e-02
   161   -1.021300311087e-12
   162    3.811434167729e-02
   163    2.056893512488e-01
   164    1.432528368302e-01
   165   -1.731873772915e-12
   166    5.657704682924e-02
   167    1.992575648685e-01
   168    6.747918772771e-02
   169   -1.199151908993e-12
   170    4.788221839594e-02
   171   -1.893402557601e-01
   172    1.004868392615e-01
   173    9.027685196076e-14
   174    5.162163960439e-02
   175   -1.806103958956e-02
   176   -6.672866067118e-03
   177   -1.398321288214e-12
   178    8.434724901967e-03
   179   -9.399433702576e-05
   180    1.505790002655e-02
   181    9.871998823835e-14
   182    6.661873892451e-03
   183    1.529299633264e-13
   184    1.236939881394e-01
   185    1.833389455736e-01
   186    9.777369626644e-03
   187   -4.322726752700e-02
   188   -1.647761621440e-02
   189   -6.338376704377e-14
   190   -1.063856567545e-02
   191    4.249697147627e-05
   192    3.208503782676e-04
   193    1.702450317286e-03
   194    5.539340121418e-03
   195    1.375925427855e-02
   196    6.423090004163e-03
   197    3.614664854547e-02
   198    1.316135961466e-12
   199   -1.026972481004e-12
   200   -7.352576269944e-03
   201   -1.037078948413e-01
   202   -1.461788928179e-12
   203   -1.823327725828e-12
   204   -2.287181212167e-02
   205   -1.678774489240e-01