[Molden Format]
[Atoms] (Angs)
  H      1    1     -2.14003202      0.00000000      0.38146042
  C      2    6     -1.21205832      0.00000000     -0.17180643
  C      3    6     -1.20429565      0.00000000     -1.56369320
  H      4    1     -2.14371879      0.00000000     -2.09923439
  C      5    6     -0.00000000      0.00000000     -2.26269040
  H      6    1     -0.00000000      0.00000000     -3.34354440
  C      7    6      1.20429565      0.00000000     -1.56369320
  H      8    1      2.14371879      0.00000000     -2.09923439
  C      9    6      1.21205832     -0.00000000     -0.17180643
  H     10    1      2.14003202     -0.00000000      0.38146042
  C     11    6      0.00000000     -0.00000000      0.51110416
 Cl     12   17      0.00000000     -0.00000000      2.24203561
[GTO]
1    0
S    3    1.000000
   3.38650000E+01    2.54938000E-02 
   5.09479000E+00    1.90373000E-01 
   1.15879000E+00    8.52161000E-01 
S    1    1.000000
   3.25840000E-01    1.00000000E+00 
S    1    1.000000
   1.02741000E-01    1.00000000E+00 
S    1    1.000000
   3.60000000E-02    1.00000000E+00 
P    1    1.000000
   7.50000000E-01    1.00000000E+00 

2    0
S    1    1.000000
   4.56324000E+03    1.96665000E-03 
S    1    1.000000
   6.82024000E+02    1.52306000E-02 
S    1    1.000000
   1.54973000E+02    7.61269000E-02 
S    1    1.000000
   4.44553000E+01    2.60801000E-01 
S    1    1.000000
   1.30290000E+01    6.16462000E-01 
S    1    1.000000
   1.82773000E+00    2.21006000E-01 
SP   3    1.000000
   2.09642000E+01    1.14660000E-01   4.02487000E-02 
   4.80331000E+00    9.19999000E-01   2.37594000E-01 
   1.45933000E+00   -3.03068000E-03   8.15854000E-01 
SP   1    1.000000
   4.83456000E-01    1.00000000E+00   1.00000000E+00 
SP   1    1.000000
   1.45585000E-01    1.00000000E+00   1.00000000E+00 
SP   1    1.000000
   4.38000000E-02    1.00000000E+00   1.00000000E+00 
SP   1    1.000000
   1.31927711E-02    1.00000000E+00   1.00000000E+00 
D    1    1.000000
   6.26000000E-01    1.00000000E+00 

3    0
S    1    1.000000
   4.56324000E+03    1.96665000E-03 
S    1    1.000000
   6.82024000E+02    1.52306000E-02 
S    1    1.000000
   1.54973000E+02    7.61269000E-02 
S    1    1.000000
   4.44553000E+01    2.60801000E-01 
S    1    1.000000
   1.30290000E+01    6.16462000E-01 
S    1    1.000000
   1.82773000E+00    2.21006000E-01 
SP   3    1.000000
   2.09642000E+01    1.14660000E-01   4.02487000E-02 
   4.80331000E+00    9.19999000E-01   2.37594000E-01 
   1.45933000E+00   -3.03068000E-03   8.15854000E-01 
SP   1    1.000000
   4.83456000E-01    1.00000000E+00   1.00000000E+00 
SP   1    1.000000
   1.45585000E-01    1.00000000E+00   1.00000000E+00 
SP   1    1.000000
   4.38000000E-02    1.00000000E+00   1.00000000E+00 
SP   1    1.000000
   1.31927711E-02    1.00000000E+00   1.00000000E+00 
D    1    1.000000
   6.26000000E-01    1.00000000E+00 

4    0
S    3    1.000000
   3.38650000E+01    2.54938000E-02 
   5.09479000E+00    1.90373000E-01 
   1.15879000E+00    8.52161000E-01 
S    1    1.000000
   3.25840000E-01    1.00000000E+00 
S    1    1.000000
   1.02741000E-01    1.00000000E+00 
S    1    1.000000
   3.60000000E-02    1.00000000E+00 
P    1    1.000000
   7.50000000E-01    1.00000000E+00 

5    0
S    1    1.000000
   4.56324000E+03    1.96665000E-03 
S    1    1.000000
   6.82024000E+02    1.52306000E-02 
S    1    1.000000
   1.54973000E+02    7.61269000E-02 
S    1    1.000000
   4.44553000E+01    2.60801000E-01 
S    1    1.000000
   1.30290000E+01    6.16462000E-01 
S    1    1.000000
   1.82773000E+00    2.21006000E-01 
SP   3    1.000000
   2.09642000E+01    1.14660000E-01   4.02487000E-02 
   4.80331000E+00    9.19999000E-01   2.37594000E-01 
   1.45933000E+00   -3.03068000E-03   8.15854000E-01 
SP   1    1.000000
   4.83456000E-01    1.00000000E+00   1.00000000E+00 
SP   1    1.000000
   1.45585000E-01    1.00000000E+00   1.00000000E+00 
SP   1    1.000000
   4.38000000E-02    1.00000000E+00   1.00000000E+00 
SP   1    1.000000
   1.31927711E-02    1.00000000E+00   1.00000000E+00 
D    1    1.000000
   6.26000000E-01    1.00000000E+00 

6    0
S    3    1.000000
   3.38650000E+01    2.54938000E-02 
   5.09479000E+00    1.90373000E-01 
   1.15879000E+00    8.52161000E-01 
S    1    1.000000
   3.25840000E-01    1.00000000E+00 
S    1    1.000000
   1.02741000E-01    1.00000000E+00 
S    1    1.000000
   3.60000000E-02    1.00000000E+00 
P    1    1.000000
   7.50000000E-01    1.00000000E+00 

7    0
S    1    1.000000
   4.56324000E+03    1.96665000E-03 
S    1    1.000000
   6.82024000E+02    1.52306000E-02 
S    1    1.000000
   1.54973000E+02    7.61269000E-02 
S    1    1.000000
   4.44553000E+01    2.60801000E-01 
S    1    1.000000
   1.30290000E+01    6.16462000E-01 
S    1    1.000000
   1.82773000E+00    2.21006000E-01 
SP   3    1.000000
   2.09642000E+01    1.14660000E-01   4.02487000E-02 
   4.80331000E+00    9.19999000E-01   2.37594000E-01 
   1.45933000E+00   -3.03068000E-03   8.15854000E-01 
SP   1    1.000000
   4.83456000E-01    1.00000000E+00   1.00000000E+00 
SP   1    1.000000
   1.45585000E-01    1.00000000E+00   1.00000000E+00 
SP   1    1.000000
   4.38000000E-02    1.00000000E+00   1.00000000E+00 
SP   1    1.000000
   1.31927711E-02    1.00000000E+00   1.00000000E+00 
D    1    1.000000
   6.26000000E-01    1.00000000E+00 

8    0
S    3    1.000000
   3.38650000E+01    2.54938000E-02 
   5.09479000E+00    1.90373000E-01 
   1.15879000E+00    8.52161000E-01 
S    1    1.000000
   3.25840000E-01    1.00000000E+00 
S    1    1.000000
   1.02741000E-01    1.00000000E+00 
S    1    1.000000
   3.60000000E-02    1.00000000E+00 
P    1    1.000000
   7.50000000E-01    1.00000000E+00 

9    0
S    1    1.000000
   4.56324000E+03    1.96665000E-03 
S    1    1.000000
   6.82024000E+02    1.52306000E-02 
S    1    1.000000
   1.54973000E+02    7.61269000E-02 
S    1    1.000000
   4.44553000E+01    2.60801000E-01 
S    1    1.000000
   1.30290000E+01    6.16462000E-01 
S    1    1.000000
   1.82773000E+00    2.21006000E-01 
SP   3    1.000000
   2.09642000E+01    1.14660000E-01   4.02487000E-02 
   4.80331000E+00    9.19999000E-01   2.37594000E-01 
   1.45933000E+00   -3.03068000E-03   8.15854000E-01 
SP   1    1.000000
   4.83456000E-01    1.00000000E+00   1.00000000E+00 
SP   1    1.000000
   1.45585000E-01    1.00000000E+00   1.00000000E+00 
SP   1    1.000000
   4.38000000E-02    1.00000000E+00   1.00000000E+00 
SP   1    1.000000
   1.31927711E-02    1.00000000E+00   1.00000000E+00 
D    1    1.000000
   6.26000000E-01    1.00000000E+00 

10    0
S    3    1.000000
   3.38650000E+01    2.54938000E-02 
   5.09479000E+00    1.90373000E-01 
   1.15879000E+00    8.52161000E-01 
S    1    1.000000
   3.25840000E-01    1.00000000E+00 
S    1    1.000000
   1.02741000E-01    1.00000000E+00 
S    1    1.000000
   3.60000000E-02    1.00000000E+00 
P    1    1.000000
   7.50000000E-01    1.00000000E+00 

11    0
S    1    1.000000
   4.56324000E+03    1.96665000E-03 
S    1    1.000000
   6.82024000E+02    1.52306000E-02 
S    1    1.000000
   1.54973000E+02    7.61269000E-02 
S    1    1.000000
   4.44553000E+01    2.60801000E-01 
S    1    1.000000
   1.30290000E+01    6.16462000E-01 
S    1    1.000000
   1.82773000E+00    2.21006000E-01 
SP   3    1.000000
   2.09642000E+01    1.14660000E-01   4.02487000E-02 
   4.80331000E+00    9.19999000E-01   2.37594000E-01 
   1.45933000E+00   -3.03068000E-03   8.15854000E-01 
SP   1    1.000000
   4.83456000E-01    1.00000000E+00   1.00000000E+00 
SP   1    1.000000
   1.45585000E-01    1.00000000E+00   1.00000000E+00 
SP   1    1.000000
   4.38000000E-02    1.00000000E+00   1.00000000E+00 
SP   1    1.000000
   1.31927711E-02    1.00000000E+00   1.00000000E+00 
D    1    1.000000
   6.26000000E-01    1.00000000E+00 

12    0
S    6    1.000000
   1.05819000E+05    7.38000000E-04 
   1.58720000E+04    5.71800000E-03 
   3.61965000E+03    2.94950000E-02 
   1.03080000E+03    1.17286000E-01 
   3.39908000E+02    3.62949000E-01 
   1.24538000E+02    5.84149000E-01 
S    3    1.000000
   1.24538000E+02    1.34177000E-01 
   4.95135000E+01    6.24250000E-01 
   2.08056000E+01    2.91756000E-01 
S    1    1.000000
   6.58346000E+00    1.00000000E+00 
S    1    1.000000
   2.56468000E+00    1.00000000E+00 
S    1    1.000000
   5.59763000E-01    1.00000000E+00 
S    1    1.000000
   1.83273000E-01    1.00000000E+00 
P    5    1.000000
   5.89776000E+02    2.39100000E-03 
   1.39849000E+02    1.85040000E-02 
   4.51413000E+01    8.13770000E-02 
   1.68733000E+01    2.21552000E-01 
   6.74110000E+00    7.72569000E-01 
P    2    1.000000
   6.74110000E+00   -1.57224400E+00 
   2.77152000E+00    9.92389000E-01 
P    1    1.000000
   1.02387000E+00    1.00000000E+00 
P    1    1.000000
   3.81368000E-01    1.00000000E+00 
P    1    1.000000
   1.09437000E-01    1.00000000E+00 
SP   1    1.000000
   4.83000000E-02    1.00000000E+00   1.00000000E+00 
SP   1    1.000000
   1.45481928E-02    1.00000000E+00   1.00000000E+00 
D    1    1.000000
   7.50000000E-01    1.00000000E+00 

[MO]
Sym=X
Ene= 2.001109
Spin=Alpha
Occup=1
     1   -1.695849895167e-12
     2   -2.747038741302e-12
     3   -6.247426652354e-13
     4    3.275316628565e-12
     5   -1.993539091950e-13
     6   -2.716079006174e-03
     7   -1.258047749207e-13
     8   -3.758560025668e-16
     9   -2.182594304613e-15
    10   -1.460117347642e-14
    11   -4.387384786150e-14
    12   -1.435232702599e-13
    13   -9.617491415218e-14
    14   -1.577575168032e-13
    15   -3.878458465603e-13
    16   -4.445877458567e-02
    17   -4.329245059609e-12
    18    3.913020875130e-13
    19   -4.633777150335e-13
    20   -7.728013851743e-02
    21   -6.529502485599e-12
    22    1.214175671496e-12
    23    7.769993813906e-13
    24   -4.648182047846e-02
    25   -4.288467970844e-12
    26    1.497048754431e-12
    27    2.573648918627e-13
    28    1.570999073516e-02
    29   -7.661574740979e-12
    30    4.998239991210e-13
    31    1.859029792077e-12
    32   -1.376375871315e-02
    33    2.595073443670e-12
    34    7.728887075406e-13
    35    2.462682686850e-13
    36    1.662526938144e-02
    37   -4.026685418524e-13
    38   -3.170782857211e-03
    39   -7.887359334545e-16
    40   -6.637924645624e-15
    41   -3.119430425918e-14
    42   -1.065115431354e-13
    43   -2.453550162015e-13
    44   -1.045730281074e-13
    45   -3.651170408447e-13
    46   -4.112615350073e-13
    47   -1.122398746454e-01
    48    4.339907761221e-12
    49    1.188632969916e-13
    50   -5.551368717390e-13
    51   -1.941524872289e-01
    52    6.525657888388e-12
    53   -7.085942385766e-14
    54    8.471539530000e-13
    55   -1.564827761614e-01
    56    4.626956961533e-12
    57    8.116750694442e-12
    58    7.490086028586e-12
    59   -1.486088679916e-02
    60   -1.868283884419e-12
    61   -4.711753140949e-14
    62   -7.715424883316e-13
    63    1.074165009190e-02
    64   -5.353833652094e-13
    65    8.363654513736e-13
    66   -2.655637971291e-13
    67    1.242082850688e-03
    68   -4.847705746286e-13
    69   -2.097897723054e-02
    70   -1.890942911722e-12
    71   -3.025196419869e-12
    72   -5.230749580866e-13
    73    3.706316469032e-12
    74   -2.759101559210e-13
    75   -8.404939955232e-03
    76    1.504383214983e-13
    77   -4.830517385780e-16
    78   -2.950830374805e-15
    79   -2.504889243662e-14
    80   -6.768888684151e-14
    81   -1.858436317649e-13
    82   -6.467137137375e-14
    83   -2.562848204177e-13
    84    1.734487860922e-13
    85   -1.451712612973e-01
    86   -4.244230135628e-12
    87   -3.425148287209e-14
    88    2.608660511485e-13
    89   -2.506071343842e-01
    90   -6.586687587618e-12
    91   -4.493548365504e-13
    92   -1.780552739671e-14
    93   -2.122658948273e-01
    94   -6.242747060204e-12
    95   -1.483552719451e-11
    96    4.290180947309e-12
    97   -1.146779700133e-02
    98   -3.130821757311e-12
    99   -2.261363309662e-12
   100   -2.739450832162e-13
   101   -1.128942783404e-02
   102    4.514339546126e-13
   103    1.220487001082e-12
   104    5.885009994924e-14
   105   -2.074486758620e-02
   106   -7.135292069906e-13
   107   -7.084013732933e-14
   108    4.162231018906e-12
   109    6.352955328094e-12
   110    2.155875839236e-12
   111    1.220337347074e-12
   112    1.997682284486e-14
   113   -1.116873145719e-02
   114    4.211360829034e-13
   115    2.526191865200e-16
   116    1.229763405751e-15
   117    8.266238870257e-15
   118    2.985774235690e-14
   119    5.448524782932e-14
   120   -2.285515940691e-14
   121    1.775445851132e-14
   122    3.139792781219e-14
   123   -1.122398746461e-01
   124    4.617471501986e-12
   125    5.225922622130e-13
   126   -4.631017082160e-15
   127   -1.941524872300e-01
   128    7.034119308012e-12
   129    5.543644145084e-13
   130   -1.876269663715e-12
   131   -1.564827761624e-01
   132    4.670485692668e-12
   133    4.735279381973e-12
   134   -1.579443329237e-12
   135   -1.486088680133e-02
   136    5.257380368017e-12
   137   -5.510823523931e-13
   138    7.544992021368e-13
   139    1.074165008672e-02
   140   -8.012629592041e-13
   141    8.843397550153e-13
   142    3.568986105647e-13
   143    1.242082850606e-03
   144   -5.116193329812e-13
   145    2.097897723053e-02
   146   -2.171949596585e-12
   147   -3.385733628706e-12
   148   -6.204909631702e-13
   149    3.733278084322e-12
   150    2.850792126959e-13
   151   -8.404939955311e-03
   152    1.460750709150e-13
   153    2.818021585640e-16
   154   -2.170856823822e-15
   155   -9.503937303321e-15
   156   -2.913709111627e-14
   157   -9.286512117245e-14
   158   -6.897946340036e-14
   159   -2.076680334917e-13
   160    7.027320384815e-13
   161   -4.445877458623e-02
   162   -4.623514529751e-12
   163    8.544438643334e-13
   164    9.572551044255e-13
   165   -7.728013851840e-02
   166   -6.953261118521e-12
   167    3.428061945933e-13
   168   -1.114751389789e-13
   169   -4.648182047939e-02
   170   -4.994485014411e-12
   171    1.669798829525e-11
   172   -8.714882949754e-12
   173    1.570999073725e-02
   174    1.408920462355e-12
   175    6.638386283469e-13
   176   -1.244867140432e-13
   177   -1.376375870852e-02
   178    3.795451331879e-12
   179    8.195224214725e-13
   180   -1.608663832315e-13
   181    1.662526938154e-02
   182   -4.303820291191e-13
   183    3.170782857234e-03
   184   -1.555538907826e-12
   185   -2.684143600792e-12
   186    4.561379315118e-14
   187    3.827898614838e-12
   188    2.191543376912e-13
   189   -2.716079006214e-03
   190   -1.470340407522e-13
   191    4.428285139422e-16
   192    3.334849804405e-15
   193    2.295358123793e-14
   194    7.429695781285e-14
   195    1.346418136129e-13
   196   -9.742442952411e-14
   197    5.996846058806e-13
   198   -2.106999341719e-13
   199    4.186210376568e-03
   200    3.775659322774e-12
   201   -1.153428869342e-12
   202   -2.468063914482e-13
   203    2.996851406622e-03
   204    6.712431052535e-12
   205    1.573539909847e-13
   206    2.407557261679e-13
   207    3.280741292038e-02
   208    6.278366308121e-12
   209   -4.387816524144e-12
   210   -8.412778105817e-12
   211    2.030517651763e-03
   212    2.478684399875e-11
   213   -6.928003897648e-13
   214   -9.323983602481e-13
   215    5.582250709661e-03
   216   -6.835207124396e-12
   217    1.547201924733e-12
   218    6.394489313713e-14
   219    1.257045257983e-02
   220   -6.617221193666e-13
   221   -7.501806915175e-14
   222   -4.114809859951e-14
   223   -2.556463739627e-13
   224    8.210749722889e-13
   225    1.147197814504e-12
   226   -8.617398912515e-13
   227   -3.565928183302e-12
   228   -3.363814713201e-13
   229   -4.873524531420e-02
   230    6.530486839597e-12
   231   -6.741154751333e-14
   232   -1.185596763640e-02
   233    1.578402817697e-12
   234    6.094630044047e-13
   235    3.147923768840e-02
   236   -5.309196912414e-12
   237    1.402491689104e-12
   238    7.546856353696e-02
   239   -1.192770426816e-11
   240    9.628263484474e-13
   241    4.837623225723e-02
   242   -4.103456549100e-12
   243   -2.786142653858e-11
   244    3.598040108128e-14
   245   -1.533001266230e-02
   246    7.257770183149e-12
   247   -1.357742248475e-12
   248   -9.589725048848e-14
   249    8.469459498633e-03
   250    1.562075787937e-12
   251    1.411742200436e-12
   252    2.367117752157e-15
   253   -5.412192816170e-03
   254   -9.382048824435e-14
   255    1.420810315947e-14
Sym=X
Ene= 2.000398
Spin=Alpha
Occup=1
     1   -1.731353393166e-02
     2   -2.709655465757e-02
     3   -5.426416501790e-03
     4    2.680755524192e-02
     5   -9.323899898244e-04
     6    5.779667297354e-14
     7   -3.736282985774e-04
     8    2.013386708374e-05
     9    1.521193202440e-04
    10    8.051178919681e-04
    11    2.626822368345e-03
    12    6.562399837428e-03
    13    3.276228911511e-03
    14    1.638729737466e-02
    15   -1.687611809850e-02
    16    5.970044705895e-14
    17   -3.009432873493e-02
    18   -4.527270960708e-02
    19   -2.761282785368e-02
    20    1.044549783691e-13
    21   -4.873162705757e-02
    22   -2.178406662714e-02
    23    1.676725560318e-02
    24    4.373001174216e-14
    25   -2.351162241702e-02
    26   -2.166022460146e-01
    27   -5.142502182308e-02
    28    4.414030103849e-13
    29   -1.217330476143e-01
    30   -4.002042288629e-03
    31    9.106954215766e-03
    32   -6.026068428811e-12
    33   -6.624435394696e-03
    34    3.147898483759e-03
    35    1.213281694962e-02
    36    6.219593193625e-14
    37   -3.731334284745e-03
    38   -3.686869549596e-14
    39   -4.919749816524e-06
    40   -3.758211501372e-05
    41   -1.950018426555e-04
    42   -6.478834055261e-04
    43   -1.503366309933e-03
    44   -3.029448838477e-04
    45   -3.933206970545e-03
    46   -1.428569699957e-01
    47    2.212375034766e-13
    48    2.142014626159e-02
    49    4.393296444191e-03
    50   -2.203940769811e-01
    51    3.827196667155e-13
    52    3.100226040244e-02
    53    1.088783611904e-02
    54   -1.568131690602e-01
    55    2.998034205204e-13
    56    1.563219096167e-03
    57   -2.267155581450e-02
    58    1.462384540483e-02
    59   -3.971924813861e-13
    60   -9.336575805941e-02
    61   -3.175599105226e-03
    62   -1.750160937716e-02
    63    6.428443142606e-12
    64   -1.306590849608e-03
    65   -3.692494988897e-03
    66    2.055159783560e-02
    67   -8.638415101354e-14
    68    3.705182606142e-03
    69    4.503995903742e-14
    70    1.030985907745e-01
    71    1.605805022752e-01
    72    3.297852585189e-02
    73   -2.001491910667e-02
    74    8.779532637685e-03
    75    4.804916099317e-14
    76    9.724319547074e-03
    77   -1.031686309620e-14
    78   -7.870485236315e-14
    79   -3.894677996524e-13
    80   -1.345806376112e-12
    81   -2.899061154603e-12
    82    5.218537029256e-13
    83   -6.133284361667e-12
    84    1.436011163982e-01
    85    1.717715106327e-13
    86   -2.958198095434e-12
    87   -4.383219700039e-12
    88    2.247988104971e-01
    89    2.930219404807e-13
    90   -3.968748484849e-12
    91    3.127323777599e-10
    92    1.085107887804e-01
    93    3.945968646506e-13
    94   -2.873109164310e-11
    95   -1.921927824042e-09
    96    8.189319412787e-02
    97    4.644555462544e-13
    98   -1.743412784342e-09
    99    2.871480573801e-11
   100    2.306055220545e-02
   101   -6.538504692157e-12
   102    4.599684980242e-11
   103   -2.634388888189e-13
   104    2.785664554741e-02
   105    1.498840683601e-13
   106    7.192328686906e-13
   107    5.355357751487e-15
   108   -2.403085218791e-12
   109    1.146256977408e-12
   110   -3.092177712251e-10
   111   -1.157800630522e-09
   112    8.253805756998e-03
   113   -1.017370357687e-13
   114    2.936815595072e-14
   115    4.919749779029e-06
   116    3.758211472604e-05
   117    1.950018412062e-04
   118    6.478834005897e-04
   119    1.503366298311e-03
   120    3.029448802127e-04
   121    3.933206952647e-03
   122   -1.428569699926e-01
   123    3.694732484143e-14
   124   -2.142014625937e-02
   125   -4.393296435110e-03
   126   -2.203940769805e-01
   127    7.326269942181e-14
   128   -3.100226040588e-02
   129   -1.088783593129e-02
   130   -1.568131688865e-01
   131    4.839727325492e-14
   132   -1.563218812296e-03
   133    2.267155835618e-02
   134    1.462384485503e-02
   135   -4.445955306591e-13
   136    9.336575873860e-02
   137    3.175599550344e-03
   138   -1.750160953550e-02
   139    6.438797841908e-12
   140    1.306590788068e-03
   141    3.692494987037e-03
   142    2.055159783284e-02
   143   -9.546312628715e-14
   144   -3.705182605605e-03
   145   -8.704059781581e-14
   146   -1.030985907678e-01
   147   -1.605805022510e-01
   148   -3.297852594375e-02
   149    2.001491937109e-02
   150    8.779532638160e-03
   151   -2.210308241317e-15
   152   -9.724319546789e-03
   153   -2.013386712275e-05
   154   -1.521193205441e-04
   155   -8.051178934689e-04
   156   -2.626822373480e-03
   157   -6.562399849943e-03
   158   -3.276228918232e-03
   159   -1.638729738880e-02
   160   -1.687611810817e-02
   161   -1.243141625171e-13
   162    3.009432874569e-02
   163    4.527270961496e-02
   164   -2.761282786097e-02
   165   -2.000969796373e-13
   166    4.873162706583e-02
   167    2.178406640013e-02
   168    1.676725530248e-02
   169   -2.952247483236e-13
   170    2.351162269029e-02
   171    2.166022479975e-01
   172   -5.142502360740e-02
   173    4.514062710296e-13
   174    1.217330465728e-01
   175    4.002042611044e-03
   176    9.106954163624e-03
   177   -6.051363237378e-12
   178    6.624435228294e-03
   179   -3.147898480467e-03
   180    1.213281695185e-02
   181    7.393031593946e-14
   182    3.731334282372e-03
   183    7.267478802153e-14
   184    1.731353393369e-02
   185    2.709655467675e-02
   186    5.426416857284e-03
   187   -2.680755379491e-02
   188   -9.323899913105e-04
   189    6.735997830376e-14
   190    3.736282992396e-04
   191    3.084838230856e-15
   192    2.346518140477e-14
   193    1.183600592915e-13
   194    3.972690850132e-13
   195    7.389308118088e-13
   196   -1.034333751997e-12
   197    3.153478481777e-12
   198    5.451457061412e-02
   199   -2.586212465085e-13
   200    3.319902369159e-12
   201    1.942060489809e-13
   202    6.401389063699e-02
   203   -3.032211706007e-13
   204    5.077058684870e-12
   205   -2.913577074258e-10
   206    1.542514829829e-02
   207   -2.381225687660e-13
   208    6.025378734718e-11
   209   -2.142801352750e-09
   210   -2.564464091943e-01
   211   -3.959364609150e-13
   212    1.397977976457e-09
   213    1.500889950781e-11
   214   -4.148000831355e-03
   215    5.458585579142e-12
   216    6.721088555891e-10
   217   -2.101197696133e-12
   218   -6.469728948636e-03
   219    4.093624783907e-14
   220    2.139361562986e-12
   221   -4.562888641744e-14
   222   -3.267585154087e-12
   223   -5.769282321519e-12
   224    2.126772674319e-12
   225    5.064824340790e-12
   226   -1.087574093564e-11
   227    2.117844463661e-11
   228   -1.260240909089e-02
   229    6.808357130318e-12
   230   -2.342732347693e-12
   231   -3.147715678833e-03
   232    1.812161700305e-12
   233   -4.391524681002e-13
   234    6.103057038496e-03
   235    3.112114159766e-13
   236    4.777122587435e-12
   237    1.445427763431e-02
   238    7.114911203303e-14
   239    1.223640150553e-11
   240    4.519400112614e-03
   241    8.454386458428e-14
   242   -1.421247176673e-11
   243   -8.288453173347e-10
   244    1.733611266115e-02
   245    3.825215509726e-14
   246    2.097581938147e-10
   247   -1.005771578407e-09
   248   -4.956624537726e-03
   249    2.675508325084e-13
   250    5.905525922683e-11
   251    4.881764156595e-13
   252   -2.943454642793e-03
   253    6.694066839521e-14
   254    2.195553539585e-12
   255   -2.830402575925e-14
Sym=X
Ene= 2.000112
Spin=Alpha
Occup=1
     1    3.241966104715e-02
     2    5.000853052892e-02
     3    1.651098591921e-02
     4    1.486240735507e-02
     5    2.828872114802e-03
     6    3.246660561690e-14
     7   -9.766689886552e-04
     8   -2.992465633759e-05
     9   -2.260641216595e-04
    10   -1.198867000280e-03
    11   -3.906725547113e-03
    12   -9.669703246143e-03
    13   -4.216770395492e-03
    14   -2.559968403322e-02
    15    8.925161060547e-04
    16    4.050071788455e-13
    17    2.974181242495e-02
    18    6.896227542916e-02
    19    1.698467640052e-05
    20    7.077240966071e-13
    21    4.616621837034e-02
    22    6.830826299519e-02
    23   -8.038521649980e-03
    24    5.292588110741e-13
    25    1.940633535637e-02
    26    1.847487366642e-01
    27    2.316893792795e-02
    28    1.816810323065e-13
    29   -6.517009360519e-02
    30    1.340422777770e-02
    31   -2.821339719198e-03
    32    3.877694235601e-13
    33    7.896332902893e-03
    34   -4.812504639093e-03
    35   -1.301317541313e-02
    36   -2.277818552815e-14
    37    6.571910793273e-03
    38    5.928601635733e-14
    39    6.151738760543e-05
    40    4.654091276601e-04
    41    2.461301765706e-03
    42    8.037912113381e-03
    43    1.970176024957e-02
    44    7.739263208784e-03
    45    5.242817937075e-02
    46    1.121369550344e-01
    47    2.832065518681e-13
    48    2.566031561844e-02
    49   -1.376633880197e-01
    50    1.738576021977e-01
    51    4.893283099764e-13
    52    3.787196381509e-02
    53   -1.501037424332e-01
    54    8.766921846730e-02
    55    3.686513949580e-13
    56    3.054439509548e-02
    57    1.136032783007e-01
    58    9.216536048660e-02
    59   -7.843569285240e-14
    60    8.298728668889e-03
    61    1.322702830582e-02
    62    7.602360656406e-03
    63   -4.574243523982e-13
    64   -8.726629813281e-03
    65   -2.063059659460e-03
    66   -1.634987458783e-02
    67    5.639707708751e-14
    68   -2.629751839888e-03
    69    2.545112689619e-14
    70   -1.194760679799e-01
    71   -1.799617876844e-01
    72   -2.059810316120e-02
    73    3.131542328649e-02
    74   -1.495568159979e-02
    75    1.218787914041e-14
    76   -1.064257615030e-02
    77   -7.471011670996e-05
    78   -5.662520436646e-04
    79   -2.977516665670e-03
    80   -9.770433164874e-03
    81   -2.408643174937e-02
    82   -1.077899774448e-02
    83   -5.894131414661e-02
    84    3.645062237379e-12
    85    1.649575422200e-13
    86    4.077357995431e-02
    87    1.532173210286e-01
    88    1.894341601749e-11
    89    2.896407255832e-13
    90    6.123515987622e-02
    91    1.321204999559e-01
    92   -1.938562070281e-10
    93    1.758778218370e-13
    94    3.942975937646e-02
    95   -3.406201592030e-01
    96   -8.493433222569e-11
    97    1.185640502971e-13
    98   -9.366638019484e-02
    99   -1.266210620147e-02
   100   -2.361909469386e-10
   101    3.206690705906e-13
   102    9.405949698145e-03
   103    1.320687756956e-02
   104    3.917310802312e-12
   105    2.624374735182e-14
   106   -2.615602470240e-03
   107   -1.771296781542e-14
   108    4.847330607289e-03
   109    6.517308760761e-03
   110    4.695309379380e-04
   111   -3.556406534748e-02
   112   -1.851172617175e-12
   113    1.502641576112e-14
   114   -1.814456099706e-04
   115    6.151738756984e-05
   116    4.654091273811e-04
   117    2.461301764297e-03
   118    8.037912108604e-03
   119    1.970176023837e-02
   120    7.739263206247e-03
   121    5.242817934992e-02
   122   -1.121369550526e-01
   123    1.494444817481e-13
   124    2.566031562639e-02
   125   -1.376633880019e-01
   126   -1.738576022122e-01
   127    2.563246214592e-13
   128    3.787196381442e-02
   129   -1.501037419482e-01
   130   -8.766921884255e-02
   131    1.449630126314e-13
   132    3.054439539770e-02
   133    1.136032852920e-01
   134   -9.216536490065e-02
   135   -1.086277093677e-13
   136    8.298730250579e-03
   137    1.322702884272e-02
   138   -7.602360400442e-03
   139   -1.898144054856e-13
   140   -8.726629753937e-03
   141   -2.063059662461e-03
   142    1.634987458882e-02
   143    1.456084081666e-14
   144   -2.629751836045e-03
   145   -3.350417162997e-14
   146   -1.194760679732e-01
   147   -1.799617876958e-01
   148   -2.059810230556e-02
   149    3.131542583113e-02
   150    1.495568160472e-02
   151    4.351580115484e-15
   152   -1.064257615111e-02
   153   -2.992465629378e-05
   154   -2.260641213237e-04
   155   -1.198866998604e-03
   156   -3.906725541338e-03
   157   -9.669703232873e-03
   158   -4.216770393033e-03
   159   -2.559968401444e-02
   160   -8.925160860245e-04
   161    2.564178644616e-13
   162    2.974181243834e-02
   163    6.896227544577e-02
   164   -1.698464877965e-05
   165    4.533669738870e-13
   166    4.616621837558e-02
   167    6.830826276760e-02
   168    8.038521945281e-03
   169    2.784703656597e-13
   170    1.940633577772e-02
   171    1.847487317603e-01
   172   -2.316893366235e-02
   173    1.580835651388e-13
   174   -6.517009153023e-02
   175    1.340422748911e-02
   176    2.821339458414e-03
   177    1.308179861291e-13
   178    7.896333159711e-03
   179   -4.812504635176e-03
   180    1.301317541038e-02
   181    7.454627523857e-15
   182    6.571910790949e-03
   183   -5.184340475122e-14
   184    3.241966104467e-02
   185    5.000853053086e-02
   186    1.651098499564e-02
   187    1.486240456045e-02
   188   -2.828872119662e-03
   189    2.666671363473e-14
   190   -9.766689904495e-04
   191   -4.405504256758e-05
   192   -3.355727170053e-04
   193   -1.762163045753e-03
   194   -5.943537418191e-03
   195   -1.506788267400e-02
   196    3.565206097356e-03
   197   -3.550604395072e-02
   198    1.758248774266e-12
   199    4.061591987082e-13
   200   -1.613305500045e-02
   201    9.237690093277e-02
   202    1.945288180022e-12
   203    8.085188076247e-13
   204   -1.604576383620e-02
   205   -9.254462531463e-04