[Molden Format]
[Atoms] (Angs)
  H      1    1     -2.14003202      0.00000000      0.38146042
  C      2    6     -1.21205832      0.00000000     -0.17180643
  C      3    6     -1.20429565      0.00000000     -1.56369320
  H      4    1     -2.14371879      0.00000000     -2.09923439
  C      5    6     -0.00000000      0.00000000     -2.26269040
  H      6    1     -0.00000000      0.00000000     -3.34354440
  C      7    6      1.20429565      0.00000000     -1.56369320
  H      8    1      2.14371879      0.00000000     -2.09923439
  C      9    6      1.21205832     -0.00000000     -0.17180643
  H     10    1      2.14003202     -0.00000000      0.38146042
  C     11    6      0.00000000     -0.00000000      0.51110416
 Cl     12   17      0.00000000     -0.00000000      2.24203561
[GTO]
1    0
S    3    1.000000
   3.38650000E+01    2.54938000E-02 
   5.09479000E+00    1.90373000E-01 
   1.15879000E+00    8.52161000E-01 
S    1    1.000000
   3.25840000E-01    1.00000000E+00 
S    1    1.000000
   1.02741000E-01    1.00000000E+00 
S    1    1.000000
   3.60000000E-02    1.00000000E+00 
P    1    1.000000
   7.50000000E-01    1.00000000E+00 

2    0
S    1    1.000000
   4.56324000E+03    1.96665000E-03 
S    1    1.000000
   6.82024000E+02    1.52306000E-02 
S    1    1.000000
   1.54973000E+02    7.61269000E-02 
S    1    1.000000
   4.44553000E+01    2.60801000E-01 
S    1    1.000000
   1.30290000E+01    6.16462000E-01 
S    1    1.000000
   1.82773000E+00    2.21006000E-01 
SP   3    1.000000
   2.09642000E+01    1.14660000E-01   4.02487000E-02 
   4.80331000E+00    9.19999000E-01   2.37594000E-01 
   1.45933000E+00   -3.03068000E-03   8.15854000E-01 
SP   1    1.000000
   4.83456000E-01    1.00000000E+00   1.00000000E+00 
SP   1    1.000000
   1.45585000E-01    1.00000000E+00   1.00000000E+00 
SP   1    1.000000
   4.38000000E-02    1.00000000E+00   1.00000000E+00 
SP   1    1.000000
   1.31927711E-02    1.00000000E+00   1.00000000E+00 
D    1    1.000000
   6.26000000E-01    1.00000000E+00 

3    0
S    1    1.000000
   4.56324000E+03    1.96665000E-03 
S    1    1.000000
   6.82024000E+02    1.52306000E-02 
S    1    1.000000
   1.54973000E+02    7.61269000E-02 
S    1    1.000000
   4.44553000E+01    2.60801000E-01 
S    1    1.000000
   1.30290000E+01    6.16462000E-01 
S    1    1.000000
   1.82773000E+00    2.21006000E-01 
SP   3    1.000000
   2.09642000E+01    1.14660000E-01   4.02487000E-02 
   4.80331000E+00    9.19999000E-01   2.37594000E-01 
   1.45933000E+00   -3.03068000E-03   8.15854000E-01 
SP   1    1.000000
   4.83456000E-01    1.00000000E+00   1.00000000E+00 
SP   1    1.000000
   1.45585000E-01    1.00000000E+00   1.00000000E+00 
SP   1    1.000000
   4.38000000E-02    1.00000000E+00   1.00000000E+00 
SP   1    1.000000
   1.31927711E-02    1.00000000E+00   1.00000000E+00 
D    1    1.000000
   6.26000000E-01    1.00000000E+00 

4    0
S    3    1.000000
   3.38650000E+01    2.54938000E-02 
   5.09479000E+00    1.90373000E-01 
   1.15879000E+00    8.52161000E-01 
S    1    1.000000
   3.25840000E-01    1.00000000E+00 
S    1    1.000000
   1.02741000E-01    1.00000000E+00 
S    1    1.000000
   3.60000000E-02    1.00000000E+00 
P    1    1.000000
   7.50000000E-01    1.00000000E+00 

5    0
S    1    1.000000
   4.56324000E+03    1.96665000E-03 
S    1    1.000000
   6.82024000E+02    1.52306000E-02 
S    1    1.000000
   1.54973000E+02    7.61269000E-02 
S    1    1.000000
   4.44553000E+01    2.60801000E-01 
S    1    1.000000
   1.30290000E+01    6.16462000E-01 
S    1    1.000000
   1.82773000E+00    2.21006000E-01 
SP   3    1.000000
   2.09642000E+01    1.14660000E-01   4.02487000E-02 
   4.80331000E+00    9.19999000E-01   2.37594000E-01 
   1.45933000E+00   -3.03068000E-03   8.15854000E-01 
SP   1    1.000000
   4.83456000E-01    1.00000000E+00   1.00000000E+00 
SP   1    1.000000
   1.45585000E-01    1.00000000E+00   1.00000000E+00 
SP   1    1.000000
   4.38000000E-02    1.00000000E+00   1.00000000E+00 
SP   1    1.000000
   1.31927711E-02    1.00000000E+00   1.00000000E+00 
D    1    1.000000
   6.26000000E-01    1.00000000E+00 

6    0
S    3    1.000000
   3.38650000E+01    2.54938000E-02 
   5.09479000E+00    1.90373000E-01 
   1.15879000E+00    8.52161000E-01 
S    1    1.000000
   3.25840000E-01    1.00000000E+00 
S    1    1.000000
   1.02741000E-01    1.00000000E+00 
S    1    1.000000
   3.60000000E-02    1.00000000E+00 
P    1    1.000000
   7.50000000E-01    1.00000000E+00 

7    0
S    1    1.000000
   4.56324000E+03    1.96665000E-03 
S    1    1.000000
   6.82024000E+02    1.52306000E-02 
S    1    1.000000
   1.54973000E+02    7.61269000E-02 
S    1    1.000000
   4.44553000E+01    2.60801000E-01 
S    1    1.000000
   1.30290000E+01    6.16462000E-01 
S    1    1.000000
   1.82773000E+00    2.21006000E-01 
SP   3    1.000000
   2.09642000E+01    1.14660000E-01   4.02487000E-02 
   4.80331000E+00    9.19999000E-01   2.37594000E-01 
   1.45933000E+00   -3.03068000E-03   8.15854000E-01 
SP   1    1.000000
   4.83456000E-01    1.00000000E+00   1.00000000E+00 
SP   1    1.000000
   1.45585000E-01    1.00000000E+00   1.00000000E+00 
SP   1    1.000000
   4.38000000E-02    1.00000000E+00   1.00000000E+00 
SP   1    1.000000
   1.31927711E-02    1.00000000E+00   1.00000000E+00 
D    1    1.000000
   6.26000000E-01    1.00000000E+00 

8    0
S    3    1.000000
   3.38650000E+01    2.54938000E-02 
   5.09479000E+00    1.90373000E-01 
   1.15879000E+00    8.52161000E-01 
S    1    1.000000
   3.25840000E-01    1.00000000E+00 
S    1    1.000000
   1.02741000E-01    1.00000000E+00 
S    1    1.000000
   3.60000000E-02    1.00000000E+00 
P    1    1.000000
   7.50000000E-01    1.00000000E+00 

9    0
S    1    1.000000
   4.56324000E+03    1.96665000E-03 
S    1    1.000000
   6.82024000E+02    1.52306000E-02 
S    1    1.000000
   1.54973000E+02    7.61269000E-02 
S    1    1.000000
   4.44553000E+01    2.60801000E-01 
S    1    1.000000
   1.30290000E+01    6.16462000E-01 
S    1    1.000000
   1.82773000E+00    2.21006000E-01 
SP   3    1.000000
   2.09642000E+01    1.14660000E-01   4.02487000E-02 
   4.80331000E+00    9.19999000E-01   2.37594000E-01 
   1.45933000E+00   -3.03068000E-03   8.15854000E-01 
SP   1    1.000000
   4.83456000E-01    1.00000000E+00   1.00000000E+00 
SP   1    1.000000
   1.45585000E-01    1.00000000E+00   1.00000000E+00 
SP   1    1.000000
   4.38000000E-02    1.00000000E+00   1.00000000E+00 
SP   1    1.000000
   1.31927711E-02    1.00000000E+00   1.00000000E+00 
D    1    1.000000
   6.26000000E-01    1.00000000E+00 

10    0
S    3    1.000000
   3.38650000E+01    2.54938000E-02 
   5.09479000E+00    1.90373000E-01 
   1.15879000E+00    8.52161000E-01 
S    1    1.000000
   3.25840000E-01    1.00000000E+00 
S    1    1.000000
   1.02741000E-01    1.00000000E+00 
S    1    1.000000
   3.60000000E-02    1.00000000E+00 
P    1    1.000000
   7.50000000E-01    1.00000000E+00 

11    0
S    1    1.000000
   4.56324000E+03    1.96665000E-03 
S    1    1.000000
   6.82024000E+02    1.52306000E-02 
S    1    1.000000
   1.54973000E+02    7.61269000E-02 
S    1    1.000000
   4.44553000E+01    2.60801000E-01 
S    1    1.000000
   1.30290000E+01    6.16462000E-01 
S    1    1.000000
   1.82773000E+00    2.21006000E-01 
SP   3    1.000000
   2.09642000E+01    1.14660000E-01   4.02487000E-02 
   4.80331000E+00    9.19999000E-01   2.37594000E-01 
   1.45933000E+00   -3.03068000E-03   8.15854000E-01 
SP   1    1.000000
   4.83456000E-01    1.00000000E+00   1.00000000E+00 
SP   1    1.000000
   1.45585000E-01    1.00000000E+00   1.00000000E+00 
SP   1    1.000000
   4.38000000E-02    1.00000000E+00   1.00000000E+00 
SP   1    1.000000
   1.31927711E-02    1.00000000E+00   1.00000000E+00 
D    1    1.000000
   6.26000000E-01    1.00000000E+00 

12    0
S    6    1.000000
   1.05819000E+05    7.38000000E-04 
   1.58720000E+04    5.71800000E-03 
   3.61965000E+03    2.94950000E-02 
   1.03080000E+03    1.17286000E-01 
   3.39908000E+02    3.62949000E-01 
   1.24538000E+02    5.84149000E-01 
S    3    1.000000
   1.24538000E+02    1.34177000E-01 
   4.95135000E+01    6.24250000E-01 
   2.08056000E+01    2.91756000E-01 
S    1    1.000000
   6.58346000E+00    1.00000000E+00 
S    1    1.000000
   2.56468000E+00    1.00000000E+00 
S    1    1.000000
   5.59763000E-01    1.00000000E+00 
S    1    1.000000
   1.83273000E-01    1.00000000E+00 
P    5    1.000000
   5.89776000E+02    2.39100000E-03 
   1.39849000E+02    1.85040000E-02 
   4.51413000E+01    8.13770000E-02 
   1.68733000E+01    2.21552000E-01 
   6.74110000E+00    7.72569000E-01 
P    2    1.000000
   6.74110000E+00   -1.57224400E+00 
   2.77152000E+00    9.92389000E-01 
P    1    1.000000
   1.02387000E+00    1.00000000E+00 
P    1    1.000000
   3.81368000E-01    1.00000000E+00 
P    1    1.000000
   1.09437000E-01    1.00000000E+00 
SP   1    1.000000
   4.83000000E-02    1.00000000E+00   1.00000000E+00 
SP   1    1.000000
   1.45481928E-02    1.00000000E+00   1.00000000E+00 
D    1    1.000000
   7.50000000E-01    1.00000000E+00 

[MO]
Sym=X
Ene= 2.000097
Spin=Alpha
Occup=1
     1    2.602016030684e-13
     2    2.864837051604e-13
     3   -1.241416172824e-13
     4    3.807436454966e-12
     5   -6.325269795371e-15
     6    1.575822247260e-03
     7    9.532438001555e-14
     8   -4.737577892105e-16
     9    1.441544471334e-15
    10   -4.270792300527e-16
    11    1.788976944866e-15
    12    4.493539777245e-15
    13    9.427421850404e-14
    14   -4.490320406362e-15
    15    8.415383018030e-13
    16    1.425866891914e-02
    17    1.782353141465e-12
    18   -4.967072800535e-13
    19    1.142847342915e-12
    20    2.587313053249e-02
    21    2.690034882288e-12
    22    2.702777205237e-12
    23    1.042246170260e-12
    24   -1.216654258862e-02
    25    1.763777615486e-12
    26    1.156750404608e-12
    27    1.222361029321e-12
    28    4.931424194618e-02
    29   -5.019403855974e-12
    30   -7.973483308552e-13
    31    6.260563875868e-12
    32   -1.125608200879e-01
    33    8.088365958078e-12
    34   -3.578896711725e-13
    35    2.477683538481e-15
    36    3.134651907384e-03
    37    2.376754067877e-13
    38    5.734711744979e-03
    39    2.130968395203e-16
    40    1.066519770027e-15
    41    7.231196242342e-15
    42    2.196344883206e-14
    43    9.026285497946e-14
    44    1.389017372582e-13
    45    5.673360689234e-14
    46   -3.594401463436e-13
    47    5.448406887195e-03
    48   -1.799350431832e-12
    49   -7.922879541076e-13
    50   -5.811291266994e-13
    51    8.395891669779e-03
    52   -2.829228354880e-12
    53    6.348028553917e-13
    54   -6.856522189453e-13
    55    8.656403366359e-03
    56   -2.333518764811e-12
    57   -4.906497947318e-12
    58    1.554044080935e-12
    59   -3.281663867956e-02
    60    2.175844117767e-12
    61   -3.280566019191e-12
    62   -2.562035551442e-12
    63    8.252246392826e-02
    64   -2.696581752669e-12
    65   -2.448507745214e-13
    66    1.274581412766e-13
    67    1.126002585999e-03
    68    1.485482040284e-13
    69    8.484803754816e-04
    70    1.015904528254e-12
    71    1.535896075601e-12
    72   -8.187857961326e-14
    73    3.144188706464e-12
    74    8.278845892118e-14
    75    7.928689403462e-05
    76    6.044920313240e-15
    77   -4.764297502629e-16
    78   -6.265726360356e-15
    79   -2.691798690233e-14
    80   -9.702777392772e-14
    81   -2.229725654701e-13
    82   -9.061713763954e-14
    83   -5.229273059912e-13
    84   -5.225775412199e-14
    85    5.852228631030e-03
    86    1.734687855286e-13
    87    1.090320731752e-12
    88   -1.178370149359e-13
    89    1.061400464670e-02
    90    2.410098222356e-13
    91    1.427991049110e-12
    92    7.196029014165e-13
    93    5.869581120222e-03
    94    1.222143305966e-12
    95   -1.863266413170e-11
    96   -4.995631551101e-12
    97    2.981119591527e-02
    98   -7.420819910729e-13
    99   -6.461313392490e-12
   100   -4.046971738386e-13
   101   -7.175694042568e-02
   102    1.942476166267e-12
   103   -3.168430243353e-13
   104    2.981499706018e-14
   105    6.217638175265e-04
   106    2.259292278043e-13
   107    8.849628128537e-15
   108   -2.186213651088e-13
   109   -4.962801394981e-13
   110   -1.294081619663e-13
   111    3.927170621746e-12
   112   -2.052047727267e-14
   113    6.567965226822e-04
   114    3.813272686607e-14
   115    2.313272292222e-16
   116   -4.743594569596e-16
   117    1.571702307455e-15
   118    7.567285539401e-15
   119   -1.517237831568e-14
   120   -3.288096016198e-14
   121    9.835966945787e-14
   122    3.188420945375e-13
   123    5.448406887227e-03
   124   -1.734964896331e-12
   125    6.281637327521e-14
   126    4.552455782518e-13
   127    8.395891669858e-03
   128   -2.712574027239e-12
   129   -1.151885401488e-12
   130    1.278313095947e-12
   131    8.656403366424e-03
   132   -1.461060866846e-12
   133    6.465164943592e-13
   134   -9.054399223442e-12
   135   -3.281663868021e-02
   136   -3.893637746719e-12
   137   -4.306113160778e-12
   138    3.070296111623e-13
   139    8.252246393427e-02
   140   -5.245172105055e-12
   141   -1.944879319489e-13
   142   -1.426621853562e-13
   143    1.126002586030e-03
   144    1.562920069942e-13
   145   -8.484803755132e-04
   146    9.358753536981e-13
   147    1.154454048247e-12
   148    9.690678468804e-13
   149    6.602809157029e-12
   150   -1.165615760906e-13
   151    7.928689400957e-05
   152   -6.593524783469e-15
   153   -6.546186585966e-17
   154    9.253523998728e-17
   155    6.432029497096e-16
   156   -2.390767299684e-16
   157    2.283700823498e-14
   158    1.640280863621e-14
   159   -5.675136722752e-14
   160   -7.264496231805e-13
   161    1.425866891922e-02
   162    1.677636368058e-12
   163    2.849530628414e-13
   164   -1.022184052140e-12
   165    2.587313053261e-02
   166    2.501826103718e-12
   167   -4.463694412251e-13
   168   -7.523126653461e-13
   169   -1.216654258849e-02
   170    1.314312609884e-12
   171    1.317958724504e-11
   172    8.991985331264e-13
   173    4.931424194703e-02
   174   -8.969632517804e-12
   175   -1.609706240219e-12
   176    2.934938145673e-12
   177   -1.125608200947e-01
   178    1.293422463846e-11
   179   -3.268473487432e-13
   180    3.023248604003e-14
   181    3.134651907366e-03
   182    2.290244850565e-13
   183   -5.734711745010e-03
   184    2.200362611975e-13
   185    1.430506351629e-13
   186    8.892524752165e-13
   187    8.280800755563e-13
   188   -4.517050675075e-14
   189    1.575822247244e-03
   190    7.110806003717e-14
   191    1.283427071708e-15
   192    1.732352540840e-14
   193    7.781587624226e-14
   194    2.790199737421e-13
   195    6.536176141354e-13
   196    2.766063705027e-13
   197    6.380828919740e-13
   198   -1.160059811274e-13
   199    5.810038347939e-02
   200   -2.365399068524e-12
   201    1.449483171674e-12
   202   -1.855887112903e-13
   203    1.055875483990e-01
   204   -4.353036073810e-12
   205    1.034134684784e-13
   206    6.306636896812e-13
   207    8.254957435206e-02
   208   -1.436672908715e-12
   209    1.270632151040e-12
   210    1.017552338443e-13
   211   -6.665735967123e-02
   212    1.536392418354e-11
   213   -3.933768264299e-12
   214   -3.721969469595e-12
   215    1.284742312365e-01
   216   -2.865879689695e-11
   217   -9.978015981087e-13
   218    1.764920400017e-14
   219    2.245505451455e-02
   220    3.735885154203e-13
   221    2.495179637848e-14
   222   -3.488453547981e-12
   223   -6.951276335033e-12
   224    5.888495311726e-12
   225    1.089474245550e-11
   226   -1.407703571184e-11
   227   -1.320838864539e-11
   228    3.717853795186e-12
   229   -3.330266957262e-01
   230   -9.205679510992e-12
   231    1.000172663475e-12
   232   -8.008722078420e-02
   233   -2.409227859902e-12
   234    5.759243840876e-13
   235    2.309836067454e-01
   236    1.126582497324e-12
   237    9.224309010726e-13
   238    5.628072801906e-01
   239    3.487204623260e-12
   240    5.572578754246e-13
   241    3.375761036466e-01
   242    1.516779041230e-12
   243   -9.618873309440e-12
   244    1.378522810631e-13
   245   -4.806611370476e-02
   246    6.918428972552e-13
   247    1.746971377278e-11
   248   -6.436603530972e-13
   249    1.691105771460e-02
   250    2.343090346112e-12
   251   -5.296523414495e-13
   252   -9.355347945362e-15
   253   -2.255820348713e-02
   254    1.266192184517e-14
   255    1.262847267268e-14
Sym=X
Ene= 2.000002
Spin=Alpha
Occup=1
     1    2.535260405156e-03
     2    8.930032958708e-04
     3   -5.636133881478e-03
     4    3.020319423556e-02
     5    5.256495121068e-04
     6   -1.234299166446e-14
     7    1.694900618238e-04
     8    8.196331143475e-07
     9    6.550937334038e-06
    10    3.249929561691e-05
    11    1.147765742538e-04
    12    1.484755667544e-04
    13   -8.008118557755e-04
    14    1.263615625787e-03
    15   -4.025224008302e-03
    16   -3.212765305344e-13
    17   -2.025308968087e-03
    18    4.345985053548e-04
    19   -4.518144841328e-03
    20   -5.523587003197e-13
    21   -6.157131049343e-04
    22   -3.047344967116e-02
    23   -2.337914495186e-02
    24   -9.980891289325e-13
    25    1.637486724656e-02
    26   -1.049000243585e-02
    27    4.871669117120e-02
    28    8.498952478467e-13
    29    3.149237767723e-02
    30    1.587298501984e-02
    31    1.819856503880e-03
    32   -2.688209585225e-12
    33   -2.581529964856e-02
    34   -8.226033078589e-07
    35    4.667761244514e-04
    36    1.177998729927e-13
    37   -5.448800366532e-04
    38    1.546215230737e-14
    39   -7.515542729544e-07
    40   -5.395606086765e-06
    41   -3.059611929799e-05
    42   -9.322817998055e-05
    43   -3.355652314801e-04
    44   -6.075897116668e-04
    45   -2.896546081341e-04
    46   -9.058828811194e-04
    47   -4.773844298303e-13
    48   -4.008552230805e-05
    49    3.117145546664e-03
    50   -7.891734601978e-04
    51   -8.318034008868e-13
    52    2.020892669514e-03
    53    1.747520190648e-02
    54    5.652228644767e-04
    55   -5.773814466123e-13
    56    2.051973439555e-03
    57    6.544666673084e-02
    58   -2.035676493353e-02
    59   -6.212871879090e-13
    60    3.577048846140e-02
    61    2.569842511051e-02
    62    7.080116342470e-03
    63    2.197300312555e-12
    64    6.542719522049e-03
    65    2.274605896785e-04
    66    4.411328389130e-04
    67   -3.137727840392e-14
    68   -2.223959237656e-04
    69   -6.573604043697e-14
    70    9.476617417028e-04
    71    7.170012321649e-04
    72   -2.324092033235e-03
    73   -1.876984281555e-03
    74    6.579057324355e-05
    75   -4.043782586757e-14
    76    3.633647161760e-05
    77    2.300300861162e-06
    78    1.756327717731e-05
    79    9.215718687098e-05
    80    3.045047624956e-04
    81    6.762515738564e-04
    82   -1.140602333850e-04
    83    2.360495741954e-03
    84   -1.005541544179e-12
    85   -4.521168169341e-13
    86    2.058302285025e-03
    87   -4.883486361304e-03
    88   -1.552247464022e-12
    89   -7.845406270915e-13
    90    4.032493563570e-03
    91   -1.175925976310e-02
    92    3.343936143674e-12
    93   -5.916327333192e-13
    94   -1.378773699441e-03
    95    8.726491019703e-02
    96   -7.957690330025e-10
    97    5.370158102057e-13
    98    1.337860934066e-02
    99    2.952017613985e-02
   100    1.963679356826e-11
   101   -1.990992867893e-12
   102    9.068912884842e-03
   103   -5.725189972844e-04
   104   -5.004499579470e-14
   105   -8.767605933351e-14
   106   -8.179189937012e-05
   107   -9.376764166015e-16
   108   -2.966974516897e-03
   109   -4.592997730523e-03
   110   -1.586907662782e-03
   111    8.031429198155e-03
   112   -3.471699794866e-13
   113   -3.207314460853e-14
   114   -3.660619463760e-04
   115   -7.515542421422e-07
   116   -5.395605846622e-06
   117   -3.059611810236e-05
   118   -9.322817589046e-05
   119   -3.355652218443e-04
   120   -6.075897083206e-04
   121   -2.896545931300e-04
   122    9.058828806738e-04
   123   -4.858220260002e-13
   124   -4.008552300114e-05
   125    3.117145538383e-03
   126    7.891734600856e-04
   127   -8.409395328962e-13
   128    2.020892668020e-03
   129    1.747520188623e-02
   130   -5.652228709192e-04
   131   -5.854497718814e-13
   132    2.051973448744e-03
   133    6.544666786816e-02
   134    2.035676391257e-02
   135   -6.311340743384e-13
   136    3.577048747695e-02
   137    2.569842517129e-02
   138   -7.080116422626e-03
   139    2.175376088129e-12
   140    6.542719446241e-03
   141    2.274605888213e-04
   142   -4.411328390985e-04
   143   -3.120833145048e-14
   144   -2.223959239732e-04
   145    6.669300762893e-14
   146    9.476617398997e-04
   147    7.170012315332e-04
   148   -2.324092014421e-03
   149   -1.876984115055e-03
   150   -6.579057280755e-05
   151   -4.057908623848e-14
   152    3.633647167518e-05
   153    8.196331625017e-07
   154    6.550937708697e-06
   155    3.249929749418e-05
   156    1.147765806707e-04
   157    1.484755820120e-04
   158   -8.008118499649e-04
   159    1.263615647923e-03
   160    4.025224006265e-03
   161   -3.256453878224e-13
   162   -2.025308966975e-03
   163    4.345984943602e-04
   164    4.518144838669e-03
   165   -5.608073197212e-13
   166   -6.157131035109e-04
   167   -3.047344967242e-02
   168    2.337914494783e-02
   169   -1.009446326852e-12
   170    1.637486725538e-02
   171   -1.049000489996e-02
   172   -4.871668992481e-02
   173    8.600407561402e-13
   174    3.149237637932e-02
   175    1.587298494409e-02
   176   -1.819856461584e-03
   177   -2.668573046236e-12
   178   -2.581529961313e-02
   179   -8.226037838261e-07
   180   -4.667761251481e-04
   181    1.177425761452e-13
   182   -5.448800365300e-04
   183   -1.521349279184e-14
   184    2.535260402681e-03
   185    8.930032905164e-04
   186   -5.636133884954e-03
   187    3.020319409316e-02
   188   -5.256495114300e-04
   189   -1.357856205812e-14
   190    1.694900621075e-04
   191   -8.205255261929e-05
   192   -6.350854577095e-04
   193   -3.168180757719e-03
   194   -1.088038412768e-02
   195   -2.584212104563e-02
   196   -1.019770790910e-02
   197   -3.349096082388e-02
   198    2.388709894374e-13
   199    4.968574654982e-13
   200    7.315195938953e-03
   201   -5.651318450937e-03
   202    4.493431178888e-13
   203    9.411050522950e-13
   204    2.072522729203e-02
   205   -2.694142581112e-02
   206   -4.219466010324e-12
   207    8.354032751464e-13
   208   -8.912093422950e-02
   209   -2.597441238121e-03
   210    1.239254514705e-09
   211   -1.169214733540e-12
   212    1.569401829940e-01
   213    2.502235431200e-02
   214    7.840805690104e-12
   215    2.909212350481e-12
   216    1.271212354227e-01
   217    9.702950140900e-03
   218    5.637053068392e-13
   219    5.189549342902e-13
   220   -2.236925106337e-03
   221   -1.992998715779e-16
   222    1.262466824386e-02
   223    4.224344866376e-02
   224   -1.095922545590e-01
   225   -2.666181700110e-01
   226    5.135834062654e-01
   227    5.452844378659e-01
   228   -9.969736735012e-10
   229   -3.131061703847e-10
   230    5.981370868967e-01
   231   -2.648412978305e-10
   232   -8.304773107025e-11
   233    1.604016375551e-01
   234   -3.597703265446e-11
   235   -7.642168349789e-12
   236    7.032230056627e-02
   237    1.114495600286e-11
   238    1.188336669690e-11
   239    8.468177515291e-02
   240    5.173454016836e-12
   241    6.607042915161e-12
   242    7.735915807270e-03
   243   -2.219772333433e-01
   244   -5.661619592957e-11
   245   -8.265136730230e-13
   246    7.847055756360e-02
   247   -1.707454377308e-01
   248    1.521073340789e-11
   249    3.660258332996e-13
   250    5.487281609877e-03
   251   -3.833732656596e-03
   252    5.486284280431e-14
   253   -2.548187897930e-13
   254    8.922723100887e-04
   255   -5.377710438497e-16
Sym=X
Ene= 2.000000
Spin=Alpha
Occup=1
     1   -3.252616983222e-05
     2    3.992238192562e-06
     3    2.736976410397e-06
     4   -9.923141825027e-04
     5   -1.305189882620e-05
     6   -1.786853348928e-13
     7   -8.879277027883e-06
     8   -7.147674398363e-09
     9   -5.918966595653e-08
    10   -2.813182158723e-07
    11   -1.039338322131e-06
    12   -2.207741955828e-07
    13    1.529021675179e-05
    14   -1.568533596828e-05
    15    4.387319518494e-05
    16   -2.318314906236e-12
    17    2.767673556199e-05
    18   -2.287984585798e-05
    19    3.629055510273e-05
    20   -4.311624319187e-12
    21   -2.647449850608e-05
    22    4.304961730628e-04
    23    3.694773186691e-04
    24    1.462905041385e-12
    25   -1.435304035249e-04
    26   -7.970479217349e-04
    27   -1.654177695950e-03
    28   -1.105819732464e-11
    29   -4.596580535373e-04
    30   -4.698491555472e-04
    31   -4.162350273158e-05
    32    3.034127282459e-11
    33    6.811127569335e-04
    34    7.271139461349e-06
    35   -2.342263038516e-05
    36   -3.102917342789e-13
    37    7.305791793864e-06
    38   -1.106500949579e-12
    39    9.506104907497e-09
    40    5.065162963646e-08
    41    4.235312809126e-07
    42    8.182585123843e-07
    43    6.791847407739e-06
    44    1.947777317867e-05
    45   -3.979141273618e-06
    46    8.588628844498e-06
    47   -9.717451779842e-13
    48    2.756521970808e-06
    49   -6.857763658025e-05
    50    1.039759705056e-05
    51   -1.192469083625e-12
    52   -4.174106513282e-05
    53   -1.194851139967e-04
    54   -2.760050123056e-05
    55   -1.688439894288e-12
    56    2.774385076311e-05
    57   -2.599668933431e-03
    58    2.359100241336e-05
    59    8.092766123857e-12
    60   -1.101136122679e-03
    61   -7.383217376002e-04
    62   -2.253485818762e-04
    63   -2.369073823572e-11
    64   -1.622276232528e-04
    65   -7.143408391353e-06
    66   -7.735418773889e-06
    67   -1.228736077635e-13
    68    1.013890427527e-05
    69   -2.220131666680e-13
    70   -1.204740064379e-05
    71   -8.690740937628e-06
    72    9.576577828492e-06
    73   -2.311553162597e-04
    74   -5.972280231637e-07
    75   -1.030251644736e-14
    76   -3.944848828222e-06
    77   -2.318447314060e-08
    78   -1.852703226673e-07
    79   -9.121543699326e-07
    80   -3.237766991121e-06
    81   -5.250904784655e-06
    82    9.394111405829e-06
    83   -2.895999484749e-05
    84    6.735084141157e-14
    85   -1.043188104502e-12
    86   -2.087367457153e-05
    87    3.083497557315e-05
    88    5.227378260612e-13
    89   -1.773625437213e-12
    90   -5.555845558513e-05
    91    1.742005616414e-04
    92    1.555866829034e-12
    93   -1.008985808390e-12
    94    1.360623554453e-05
    95   -2.126213548377e-04
    96   -1.590759845638e-11
    97   -7.022037284586e-12
    98    3.117534867556e-04
    99   -6.746768670813e-04
   100    1.870826392934e-12
   101    2.045422654825e-11
   102   -2.252358873486e-04
   103    1.130897581295e-05
   104    1.552243520349e-13
   105   -1.185892426670e-13
   106    2.404935462552e-07
   107   -1.173923499418e-16
   108    3.038315222518e-05
   109    3.877342946619e-05
   110    3.390568869626e-05
   111    4.805055156516e-05
   112   -3.088288963327e-14
   113   -1.254498514697e-13
   114    1.068262696158e-06
   115    9.506102989336e-09
   116    5.065160907103e-08
   117    4.235311990884e-07
   118    8.182582213867e-07
   119    6.791846677415e-06
   120    1.947777285930e-05
   121   -3.979142857149e-06
   122   -8.588628266789e-06
   123   -9.720080880420e-13
   124    2.756522464489e-06
   125   -6.857763154597e-05
   126   -1.039759665938e-05
   127   -1.195155650844e-12
   128   -4.174106524498e-05
   129   -1.194851263163e-04
   130    2.760051565072e-05
   131   -1.688692409585e-12
   132    2.774384213422e-05
   133   -2.599669080661e-03
   134   -2.359098283645e-05
   135    8.092002677878e-12
   136   -1.101136187947e-03
   137   -7.383217486637e-04
   138    2.253485787478e-04
   139   -2.368613680981e-11
   140   -1.622276247734e-04
   141   -7.143408464937e-06
   142    7.735418644630e-06
   143   -1.235326844435e-13
   144    1.013890440591e-05
   145    2.217742900302e-13
   146   -1.204739943799e-05
   147   -8.690741449145e-06
   148    9.576570281782e-06
   149   -2.311553396857e-04
   150    5.972281182269e-07
   151   -1.016250682603e-14
   152   -3.944848587411e-06
   153   -7.147666994958e-09
   154   -5.918960310306e-08
   155   -2.813179269761e-07
   156   -1.039337362048e-06
   157   -2.207715860138e-07
   158    1.529021867121e-05
   159   -1.568533043937e-05
   160   -4.387319467628e-05
   161   -2.320046592420e-12
   162    2.767672755545e-05
   163   -2.287986522008e-05
   164   -3.629055195420e-05
   165   -4.311999184185e-12
   166   -2.647450826784e-05
   167    4.304962469828e-04
   168   -3.694773505491e-04
   169    1.460538893231e-12
   170   -1.435303956879e-04
   171   -7.970478760484e-04
   172    1.654177695772e-03
   173   -1.105689583678e-11
   174   -4.596581419090e-04
   175   -4.698491518794e-04
   176    4.162350766510e-05
   177    3.033498241872e-11
   178    6.811127512031e-04
   179    7.271139526919e-06
   180    2.342263240943e-05
   181   -3.099248832737e-13
   182    7.305790174505e-06
   183    1.106926720592e-12
   184   -3.252617527890e-05
   185    3.992229858940e-06
   186    2.736983565006e-06
   187   -9.923141636098e-04
   188    1.305190113168e-05
   189   -1.788604059781e-13
   190   -8.879277405685e-06
   191    1.098017086446e-06
   192    8.462948866233e-06
   193    4.246456976943e-05
   194    1.448251867888e-04
   195    3.495995115117e-04
   196    1.432449071342e-04
   197    4.354533552808e-04
   198   -9.344190279071e-12
   199   -9.534440578890e-12
   200   -3.662667733006e-05
   201    1.183371740824e-04
   202   -1.133779726889e-11
   203   -1.940384836477e-11
   204   -3.123771452300e-04
   205    1.375194909754e-04