[Molden Format]
[Atoms] (Angs)
  H      1    1     -2.14003202      0.00000000      0.38146042
  C      2    6     -1.21205832      0.00000000     -0.17180643
  C      3    6     -1.20429565      0.00000000     -1.56369320
  H      4    1     -2.14371879      0.00000000     -2.09923439
  C      5    6     -0.00000000      0.00000000     -2.26269040
  H      6    1     -0.00000000      0.00000000     -3.34354440
  C      7    6      1.20429565      0.00000000     -1.56369320
  H      8    1      2.14371879      0.00000000     -2.09923439
  C      9    6      1.21205832     -0.00000000     -0.17180643
  H     10    1      2.14003202     -0.00000000      0.38146042
  C     11    6      0.00000000     -0.00000000      0.51110416
 Cl     12   17      0.00000000     -0.00000000      2.24203561
[GTO]
1    0
S    3    1.000000
   3.38650000E+01    2.54938000E-02 
   5.09479000E+00    1.90373000E-01 
   1.15879000E+00    8.52161000E-01 
S    1    1.000000
   3.25840000E-01    1.00000000E+00 
S    1    1.000000
   1.02741000E-01    1.00000000E+00 
S    1    1.000000
   3.60000000E-02    1.00000000E+00 
P    1    1.000000
   7.50000000E-01    1.00000000E+00 

2    0
S    1    1.000000
   4.56324000E+03    1.96665000E-03 
S    1    1.000000
   6.82024000E+02    1.52306000E-02 
S    1    1.000000
   1.54973000E+02    7.61269000E-02 
S    1    1.000000
   4.44553000E+01    2.60801000E-01 
S    1    1.000000
   1.30290000E+01    6.16462000E-01 
S    1    1.000000
   1.82773000E+00    2.21006000E-01 
SP   3    1.000000
   2.09642000E+01    1.14660000E-01   4.02487000E-02 
   4.80331000E+00    9.19999000E-01   2.37594000E-01 
   1.45933000E+00   -3.03068000E-03   8.15854000E-01 
SP   1    1.000000
   4.83456000E-01    1.00000000E+00   1.00000000E+00 
SP   1    1.000000
   1.45585000E-01    1.00000000E+00   1.00000000E+00 
SP   1    1.000000
   4.38000000E-02    1.00000000E+00   1.00000000E+00 
SP   1    1.000000
   1.31927711E-02    1.00000000E+00   1.00000000E+00 
D    1    1.000000
   6.26000000E-01    1.00000000E+00 

3    0
S    1    1.000000
   4.56324000E+03    1.96665000E-03 
S    1    1.000000
   6.82024000E+02    1.52306000E-02 
S    1    1.000000
   1.54973000E+02    7.61269000E-02 
S    1    1.000000
   4.44553000E+01    2.60801000E-01 
S    1    1.000000
   1.30290000E+01    6.16462000E-01 
S    1    1.000000
   1.82773000E+00    2.21006000E-01 
SP   3    1.000000
   2.09642000E+01    1.14660000E-01   4.02487000E-02 
   4.80331000E+00    9.19999000E-01   2.37594000E-01 
   1.45933000E+00   -3.03068000E-03   8.15854000E-01 
SP   1    1.000000
   4.83456000E-01    1.00000000E+00   1.00000000E+00 
SP   1    1.000000
   1.45585000E-01    1.00000000E+00   1.00000000E+00 
SP   1    1.000000
   4.38000000E-02    1.00000000E+00   1.00000000E+00 
SP   1    1.000000
   1.31927711E-02    1.00000000E+00   1.00000000E+00 
D    1    1.000000
   6.26000000E-01    1.00000000E+00 

4    0
S    3    1.000000
   3.38650000E+01    2.54938000E-02 
   5.09479000E+00    1.90373000E-01 
   1.15879000E+00    8.52161000E-01 
S    1    1.000000
   3.25840000E-01    1.00000000E+00 
S    1    1.000000
   1.02741000E-01    1.00000000E+00 
S    1    1.000000
   3.60000000E-02    1.00000000E+00 
P    1    1.000000
   7.50000000E-01    1.00000000E+00 

5    0
S    1    1.000000
   4.56324000E+03    1.96665000E-03 
S    1    1.000000
   6.82024000E+02    1.52306000E-02 
S    1    1.000000
   1.54973000E+02    7.61269000E-02 
S    1    1.000000
   4.44553000E+01    2.60801000E-01 
S    1    1.000000
   1.30290000E+01    6.16462000E-01 
S    1    1.000000
   1.82773000E+00    2.21006000E-01 
SP   3    1.000000
   2.09642000E+01    1.14660000E-01   4.02487000E-02 
   4.80331000E+00    9.19999000E-01   2.37594000E-01 
   1.45933000E+00   -3.03068000E-03   8.15854000E-01 
SP   1    1.000000
   4.83456000E-01    1.00000000E+00   1.00000000E+00 
SP   1    1.000000
   1.45585000E-01    1.00000000E+00   1.00000000E+00 
SP   1    1.000000
   4.38000000E-02    1.00000000E+00   1.00000000E+00 
SP   1    1.000000
   1.31927711E-02    1.00000000E+00   1.00000000E+00 
D    1    1.000000
   6.26000000E-01    1.00000000E+00 

6    0
S    3    1.000000
   3.38650000E+01    2.54938000E-02 
   5.09479000E+00    1.90373000E-01 
   1.15879000E+00    8.52161000E-01 
S    1    1.000000
   3.25840000E-01    1.00000000E+00 
S    1    1.000000
   1.02741000E-01    1.00000000E+00 
S    1    1.000000
   3.60000000E-02    1.00000000E+00 
P    1    1.000000
   7.50000000E-01    1.00000000E+00 

7    0
S    1    1.000000
   4.56324000E+03    1.96665000E-03 
S    1    1.000000
   6.82024000E+02    1.52306000E-02 
S    1    1.000000
   1.54973000E+02    7.61269000E-02 
S    1    1.000000
   4.44553000E+01    2.60801000E-01 
S    1    1.000000
   1.30290000E+01    6.16462000E-01 
S    1    1.000000
   1.82773000E+00    2.21006000E-01 
SP   3    1.000000
   2.09642000E+01    1.14660000E-01   4.02487000E-02 
   4.80331000E+00    9.19999000E-01   2.37594000E-01 
   1.45933000E+00   -3.03068000E-03   8.15854000E-01 
SP   1    1.000000
   4.83456000E-01    1.00000000E+00   1.00000000E+00 
SP   1    1.000000
   1.45585000E-01    1.00000000E+00   1.00000000E+00 
SP   1    1.000000
   4.38000000E-02    1.00000000E+00   1.00000000E+00 
SP   1    1.000000
   1.31927711E-02    1.00000000E+00   1.00000000E+00 
D    1    1.000000
   6.26000000E-01    1.00000000E+00 

8    0
S    3    1.000000
   3.38650000E+01    2.54938000E-02 
   5.09479000E+00    1.90373000E-01 
   1.15879000E+00    8.52161000E-01 
S    1    1.000000
   3.25840000E-01    1.00000000E+00 
S    1    1.000000
   1.02741000E-01    1.00000000E+00 
S    1    1.000000
   3.60000000E-02    1.00000000E+00 
P    1    1.000000
   7.50000000E-01    1.00000000E+00 

9    0
S    1    1.000000
   4.56324000E+03    1.96665000E-03 
S    1    1.000000
   6.82024000E+02    1.52306000E-02 
S    1    1.000000
   1.54973000E+02    7.61269000E-02 
S    1    1.000000
   4.44553000E+01    2.60801000E-01 
S    1    1.000000
   1.30290000E+01    6.16462000E-01 
S    1    1.000000
   1.82773000E+00    2.21006000E-01 
SP   3    1.000000
   2.09642000E+01    1.14660000E-01   4.02487000E-02 
   4.80331000E+00    9.19999000E-01   2.37594000E-01 
   1.45933000E+00   -3.03068000E-03   8.15854000E-01 
SP   1    1.000000
   4.83456000E-01    1.00000000E+00   1.00000000E+00 
SP   1    1.000000
   1.45585000E-01    1.00000000E+00   1.00000000E+00 
SP   1    1.000000
   4.38000000E-02    1.00000000E+00   1.00000000E+00 
SP   1    1.000000
   1.31927711E-02    1.00000000E+00   1.00000000E+00 
D    1    1.000000
   6.26000000E-01    1.00000000E+00 

10    0
S    3    1.000000
   3.38650000E+01    2.54938000E-02 
   5.09479000E+00    1.90373000E-01 
   1.15879000E+00    8.52161000E-01 
S    1    1.000000
   3.25840000E-01    1.00000000E+00 
S    1    1.000000
   1.02741000E-01    1.00000000E+00 
S    1    1.000000
   3.60000000E-02    1.00000000E+00 
P    1    1.000000
   7.50000000E-01    1.00000000E+00 

11    0
S    1    1.000000
   4.56324000E+03    1.96665000E-03 
S    1    1.000000
   6.82024000E+02    1.52306000E-02 
S    1    1.000000
   1.54973000E+02    7.61269000E-02 
S    1    1.000000
   4.44553000E+01    2.60801000E-01 
S    1    1.000000
   1.30290000E+01    6.16462000E-01 
S    1    1.000000
   1.82773000E+00    2.21006000E-01 
SP   3    1.000000
   2.09642000E+01    1.14660000E-01   4.02487000E-02 
   4.80331000E+00    9.19999000E-01   2.37594000E-01 
   1.45933000E+00   -3.03068000E-03   8.15854000E-01 
SP   1    1.000000
   4.83456000E-01    1.00000000E+00   1.00000000E+00 
SP   1    1.000000
   1.45585000E-01    1.00000000E+00   1.00000000E+00 
SP   1    1.000000
   4.38000000E-02    1.00000000E+00   1.00000000E+00 
SP   1    1.000000
   1.31927711E-02    1.00000000E+00   1.00000000E+00 
D    1    1.000000
   6.26000000E-01    1.00000000E+00 

12    0
S    6    1.000000
   1.05819000E+05    7.38000000E-04 
   1.58720000E+04    5.71800000E-03 
   3.61965000E+03    2.94950000E-02 
   1.03080000E+03    1.17286000E-01 
   3.39908000E+02    3.62949000E-01 
   1.24538000E+02    5.84149000E-01 
S    3    1.000000
   1.24538000E+02    1.34177000E-01 
   4.95135000E+01    6.24250000E-01 
   2.08056000E+01    2.91756000E-01 
S    1    1.000000
   6.58346000E+00    1.00000000E+00 
S    1    1.000000
   2.56468000E+00    1.00000000E+00 
S    1    1.000000
   5.59763000E-01    1.00000000E+00 
S    1    1.000000
   1.83273000E-01    1.00000000E+00 
P    5    1.000000
   5.89776000E+02    2.39100000E-03 
   1.39849000E+02    1.85040000E-02 
   4.51413000E+01    8.13770000E-02 
   1.68733000E+01    2.21552000E-01 
   6.74110000E+00    7.72569000E-01 
P    2    1.000000
   6.74110000E+00   -1.57224400E+00 
   2.77152000E+00    9.92389000E-01 
P    1    1.000000
   1.02387000E+00    1.00000000E+00 
P    1    1.000000
   3.81368000E-01    1.00000000E+00 
P    1    1.000000
   1.09437000E-01    1.00000000E+00 
SP   1    1.000000
   4.83000000E-02    1.00000000E+00   1.00000000E+00 
SP   1    1.000000
   1.45481928E-02    1.00000000E+00   1.00000000E+00 
D    1    1.000000
   7.50000000E-01    1.00000000E+00 

[MO]
Sym=X
Ene= 2.001333
Spin=Alpha
Occup=1
     1   -1.385578760199e-12
     2   -2.293476468782e-12
     3   -6.875106014888e-13
     4    3.396214045671e-12
     5   -1.776264174014e-13
     6   -6.298975088887e-03
     7   -7.016298424367e-14
     8   -1.933987451107e-15
     9   -1.074704765517e-14
    10   -6.054925470469e-14
    11   -2.027797969922e-13
    12   -5.112937675000e-13
    13   -2.018391661306e-13
    14   -7.143137142905e-13
    15    5.479998217955e-14
    16   -8.999620379288e-02
    17   -3.156570308863e-12
    18    4.957391097784e-13
    19    1.577865606712e-13
    20   -1.547977721325e-01
    21   -4.746324042042e-12
    22    1.722935537701e-12
    23    9.241623062248e-13
    24   -1.368886919818e-01
    25   -2.999656280169e-12
    26   -3.544298969217e-12
    27    4.137822823694e-13
    28    1.923425177524e-02
    29   -6.356027534298e-12
    30    2.558458185941e-13
    31    3.336289896710e-12
    32   -6.608175289428e-02
    33    4.147145954202e-12
    34    5.541854273337e-13
    35    1.911541220396e-13
    36    3.537605378197e-03
    37   -2.731704195239e-13
    38   -1.546058237384e-02
    39    3.911069807833e-16
    40   -1.017219034333e-15
    41   -3.916610660795e-16
    42   -4.929492024235e-15
    43    5.366749383627e-15
    44    1.514773441710e-14
    45   -1.845790420422e-14
    46   -2.143451228459e-13
    47   -4.804043141826e-02
    48    3.247112955231e-12
    49   -2.100557601117e-13
    50   -2.717747253050e-13
    51   -8.284928264033e-02
    52    4.861543911999e-12
    53    1.460271375634e-13
    54    8.287661500054e-13
    55   -4.917677467428e-02
    56    3.357260876606e-12
    57    7.629575757191e-12
    58    6.532037190829e-12
    59   -1.567846108490e-02
    60    1.181199178011e-12
    61   -5.520798673707e-13
    62   -1.167250083396e-12
    63    5.618206960920e-02
    64   -9.450897749652e-13
    65    6.467171168155e-13
    66   -1.879170815136e-13
    67   -1.289494051711e-02
    68   -3.725429563791e-13
    69   -5.738308061805e-03
    70   -1.520509839556e-12
    71   -2.414281434036e-12
    72   -4.100162536091e-13
    73    4.679917523551e-12
    74   -2.328477007050e-13
    75   -3.042272960845e-03
    76    1.153076525839e-13
    77    1.076950437847e-16
    78   -7.178006215767e-16
    79   -7.312892715149e-15
    80   -1.802585625721e-14
    81   -5.310007536866e-14
    82   -7.694754952422e-15
    83   -1.161395754877e-13
    84    5.138353899894e-14
    85   -2.795282631843e-02
    86   -3.366248624781e-12
    87    8.644304469669e-14
    88    2.222364145165e-14
    89   -3.497509635685e-02
    90   -5.212425777173e-12
    91   -2.321432047311e-13
    92    8.641357816949e-14
    93    1.327690856218e-03
    94   -4.884787833575e-12
    95   -1.404602201210e-11
    96    1.695689450807e-12
    97    2.647309963589e-02
    98   -3.329239961370e-12
    99   -3.197298108025e-12
   100   -2.570906254206e-13
   101   -4.842784602780e-02
   102    6.680209348907e-13
   103    9.309957102370e-13
   104    3.201459771177e-14
   105   -1.036983681805e-02
   106   -5.433250510622e-13
   107    5.484054347496e-15
   108    3.260110390919e-12
   109    4.952992525876e-12
   110    1.554705220981e-12
   111    1.307838954876e-12
   112    6.746903571141e-16
   113   -7.416273745409e-04
   114    3.343422449300e-13
   115    4.153330034521e-16
   116   -1.208103748071e-15
   117   -9.166210360214e-16
   118   -2.467257179236e-15
   119   -2.834067062136e-14
   120   -5.197003190941e-14
   121   -6.284877099942e-15
   122    1.120222061350e-13
   123   -4.804043141825e-02
   124    3.447983295211e-12
   125    2.406351340405e-13
   126    9.947565932890e-14
   127   -8.284928264024e-02
   128    5.238537856756e-12
   129    2.734917005865e-13
   130   -1.260401600604e-12
   131   -4.917677467416e-02
   132    3.549240290909e-12
   133    4.946598341310e-12
   134   -2.532224826027e-12
   135   -1.567846108499e-02
   136    3.833703488639e-12
   137   -1.368340571881e-12
   138    5.118061959482e-13
   139    5.618206961261e-02
   140   -1.719437222666e-12
   141    6.770650428044e-13
   142    2.765145768363e-13
   143   -1.289494051710e-02
   144   -3.784224134756e-13
   145    5.738308061771e-03
   146   -1.636808941008e-12
   147   -2.620745160322e-12
   148   -3.823152927987e-13
   149    4.355138892665e-12
   150    2.184347500824e-13
   151   -3.042272960872e-03
   152    1.141683578723e-13
   153   -4.240321118385e-16
   154   -3.154203666240e-15
   155   -1.794078482353e-14
   156   -5.758761966993e-14
   157   -1.559750655151e-13
   158   -9.747016703336e-14
   159   -2.468961821681e-13
   160    6.488222031870e-13
   161   -8.999620379277e-02
   162   -3.452894325768e-12
   163    6.124766140092e-13
   164    9.238702269936e-13
   165   -1.547977721324e-01
   166   -5.181104166598e-12
   167   -2.587098530933e-13
   168    1.089320246492e-13
   169   -1.368886919816e-01
   170   -3.682688874915e-12
   171    1.963279849375e-11
   172   -8.201224546489e-12
   173    1.923425177572e-02
   174    3.577209191070e-13
   175    3.173815318959e-13
   176    7.737583260194e-13
   177   -6.608175289847e-02
   178    5.995232105452e-12
   179    5.850613284901e-13
   180   -8.472014762304e-14
   181    3.537605378198e-03
   182   -3.019089186370e-13
   183    1.546058237383e-02
   184   -1.094355165647e-12
   185   -1.972594038339e-12
   186    2.436532348189e-13
   187    3.363455985515e-12
   188    1.553046995926e-13
   189   -6.298975088882e-03
   190   -1.155061625684e-13
   191    3.020417910132e-16
   192    7.640227749323e-15
   193    3.291376302862e-14
   194    1.192788587428e-13
   195    2.490442064126e-13
   196    4.646699611808e-15
   197    6.767263240029e-13
   198   -4.250530662685e-13
   199   -8.911388896110e-02
   200    2.448361190090e-12
   201   -1.060794802625e-12
   202   -6.448969898409e-13
   203   -1.514921620872e-01
   204    4.351104001691e-12
   205   -3.657912330902e-13
   206    1.818071804315e-13
   207   -1.361127947858e-01
   208    4.069480569640e-12
   209   -6.577877285838e-12
   210   -8.281501225522e-12
   211   -3.019148216570e-02
   212    2.380583854057e-11
   213   -1.506685246416e-12
   214   -2.060525888860e-12
   215    4.278086239639e-02
   216   -1.201226950770e-11
   217    1.052046547497e-12
   218    1.305829617855e-13
   219    3.074577172974e-02
   220   -4.622099028723e-13
   221    8.362829609844e-15
   222   -8.779487592218e-14
   223   -4.062907438808e-13
   224    1.102548375924e-12
   225    1.604129118518e-12
   226   -1.226044118560e-12
   227   -2.832096762327e-12
   228   -8.519794445155e-13
   229   -2.403988927195e-01
   230    4.712303027419e-12
   231   -1.993256485810e-13
   232   -5.752581740494e-02
   233    1.145487891168e-12
   234    8.496722062744e-13
   235    1.759820524109e-01
   236   -3.565828996458e-12
   237    1.957814758793e-12
   238    4.254477284167e-01
   239   -8.053458069213e-12
   240    1.364472765970e-12
   241    3.099801334308e-01
   242   -2.970372496431e-12
   243   -2.471024541783e-11
   244    2.587765951686e-14
   245   -4.993227522428e-02
   246    6.154879026149e-12
   247    2.173289487395e-12
   248   -5.618615436807e-14
   249    3.511381551271e-02
   250    1.963635599607e-12
   251    9.292371385792e-13
   252    1.160964036960e-14
   253    4.600165591474e-03
   254   -7.239400616082e-14
   255    5.547697566128e-16
Sym=X
Ene= 2.000411
Spin=Alpha
Occup=1
     1   -1.061062577666e-01
     2   -1.612962469576e-01
     3   -3.296687281352e-02
     4    1.943182948244e-02
     5   -9.062634666710e-03
     6    1.566606583177e-14
     7    1.118740983590e-02
     8    1.751636907557e-05
     9    1.328783512762e-04
    10    6.994879477308e-04
    11    2.293400505829e-03
    12    5.497910484770e-03
    13    1.389846894675e-03
    14    1.502969636348e-02
    15    1.384001536913e-01
    16    4.627050312281e-13
    17    1.593779210721e-02
    18   -3.132020645153e-02
    19    2.159781330613e-01
    20    8.073394404959e-13
    21    2.303284897218e-02
    22   -1.148319142396e-01
    23    1.109079216585e-01
    24    5.792248252407e-13
    25   -3.676255456110e-02
    26    5.909665176975e-01
    27    2.145250272564e-01
    28   -1.596246572980e-13
    29    1.921714804879e-01
    30    1.675470882218e-02
    31    2.901719858576e-02
    32   -4.768532054824e-12
    33    1.380466119852e-02
    34   -1.078587036983e-04
    35    2.147034005916e-02
    36   -2.087796806171e-14
    37   -1.993846945665e-03
    38    1.001007776565e-13
    39   -7.760489275575e-06
    40   -5.845938079807e-05
    41   -3.117764123309e-04
    42   -1.010520272868e-03
    43   -2.530559545572e-03
    44   -1.174704764796e-03
    45   -6.801947460351e-03
    46    1.094878509713e-02
    47    2.386958111942e-13
    48   -2.592062922056e-02
    49    1.960380035137e-02
    50    1.691599058889e-02
    51    4.139072185097e-13
    52   -3.908663168682e-02
    53    2.279958720346e-02
    54    2.470858229456e-03
    55    2.754746493524e-13
    56   -2.972558936644e-02
    57   -1.155310574275e-01
    58   -1.274411793225e-01
    59    2.675160106253e-13
    60    1.217086872089e-01
    61   -7.951291109309e-03
    62   -2.157575109475e-02
    63    4.648213851622e-12
    64   -1.910323483164e-03
    65   -2.475431781042e-03
    66    1.343072412939e-02
    67    8.631940679044e-14
    68    2.247908525018e-03
    69   -8.319954164740e-15
    70    1.421947582675e-02
    71    2.585801960136e-02
    72    1.511250863763e-02
    73   -1.270643423097e-02
    74    2.467461018730e-04
    75    2.433327310958e-14
    76   -1.123156124718e-04
    77   -3.017346837002e-15
    78   -2.575591001079e-14
    79   -1.358844181227e-13
    80   -4.740379151428e-13
    81    1.157264467872e-14
    82    6.634614094910e-12
    83   -9.251823310550e-12
    84   -2.725062381761e-02
    85    7.868007176673e-14
    86   -7.552556484804e-12
    87   -1.192339359124e-11
    88   -3.544262124088e-02
    89    1.341014504925e-13
    90    4.410941720837e-12
    91    6.844842286792e-10
    92    1.905742020946e-02
    93   -4.106952819151e-14
    94   -2.341321335383e-10
    95   -4.975800626509e-09
    96   -1.661709367909e-01
    97   -3.393120560217e-13
    98   -4.632800015076e-09
    99   -1.510557907124e-10
   100    1.131894024459e-02
   101   -4.464060164181e-12
   102   -1.116415912071e-10
   103    3.755266145485e-12
   104   -5.243318715372e-03
   105   -5.186838638617e-15
   106   -5.066042045800e-12
   107   -8.211552015995e-15
   108   -3.516044358557e-15
   109    4.370973554341e-11
   110   -1.071464235381e-09
   111   -2.914269363350e-09
   112   -7.884551417865e-04
   113    5.004126780868e-14
   114    1.501255789519e-12
   115    7.760489322379e-06
   116    5.845938115715e-05
   117    3.117764141325e-04
   118    1.010520278998e-03
   119    2.530559561250e-03
   120    1.174704777358e-03
   121    6.801947473907e-03
   122    1.094878511074e-02
   123    1.328018115240e-13
   124    2.592062924825e-02
   125   -1.960380037463e-02
   126    1.691599061092e-02
   127    2.261134319555e-13
   128    3.908663173008e-02
   129   -2.279958645423e-02
   130    2.470858443380e-03
   131    1.324830975391e-13
   132    2.972559006979e-02
   133    1.155310643969e-01
   134   -1.274411803095e-01
   135    2.559707437973e-13
   136   -1.217086856373e-01
   137    7.951291934075e-03
   138   -2.157575117226e-02
   139    4.630820657869e-12
   140    1.910323548837e-03
   141    2.475431768456e-03
   142    1.343072412595e-02
   143    7.952785439925e-14
   144   -2.247908518770e-03
   145   -2.671622092531e-14
   146   -1.421947581645e-02
   147   -2.585801954994e-02
   148   -1.511250882860e-02
   149    1.270643434407e-02
   150    2.467461044135e-04
   151   -1.432348430135e-14
   152    1.123156136582e-04
   153   -1.751636899867e-05
   154   -1.328783506861e-04
   155   -6.994879447667e-04
   156   -2.293400495692e-03
   157   -5.497910461444e-03
   158   -1.389846890080e-03
   159   -1.502969632444e-02
   160    1.384001536621e-01
   161    3.527248261437e-13
   162   -1.593779207645e-02
   163    3.132020644539e-02
   164    2.159781330407e-01
   165    6.076591847330e-13
   166   -2.303284893261e-02
   167    1.148319135881e-01
   168    1.109079209466e-01
   169    4.347324697819e-13
   170    3.676255528014e-02
   171   -5.909665126577e-01
   172    2.145250222242e-01
   173   -2.086838371423e-13
   174   -1.921714830701e-01
   175   -1.675470822474e-02
   176    2.901719826082e-02
   177   -4.747929865774e-12
   178   -1.380466149150e-02
   179    1.078587158879e-04
   180    2.147034006432e-02
   181   -3.228886495463e-14
   182    1.993846945918e-03
   183   -1.070431398418e-13
   184    1.061062577739e-01
   185    1.612962469191e-01
   186    3.296687407214e-02
   187   -1.943182563306e-02
   188   -9.062634665369e-03
   189   -3.677917857924e-15
   190   -1.118740983042e-02
   191    6.316453662490e-15
   192    4.936901233063e-14
   193    2.480489874831e-13
   194    8.580595536304e-13
   195    1.224513857641e-12
   196   -4.520327049343e-12
   197    9.025167162165e-12
   198   -1.423278097036e-01
   199    6.386959641486e-13
   200   -9.504009341869e-13
   201    9.557511614417e-12
   202   -2.191388864197e-01
   203    1.118353945809e-12
   204   -1.040388765863e-11
   205   -7.485802423841e-10
   206   -1.983069089476e-01
   207    9.503050924328e-13
   208    1.391454418908e-10
   209   -5.974591882152e-09
   210    5.013842729531e-01
   211    8.699720153851e-14
   212    3.276035621892e-09
   213   -7.367542656104e-11
   214   -3.367047606826e-02
   215    4.714729194501e-12
   216    9.597884234228e-10
   217   -7.519726781114e-12
   218    1.545666292294e-02
   219   -2.349544248547e-14
   220    7.324545127747e-12
   221   -2.176422707903e-14
   222   -2.955842611474e-13
   223   -6.176745716583e-13
   224   -4.943894689225e-13
   225    3.869558890369e-12
   226   -2.155090901904e-11
   227    1.451196485546e-10
   228    7.815271790795e-02
   229   -4.184911427648e-12
   230   -6.377604996532e-12
   231    1.884262078074e-02
   232   -1.096906081451e-12
   233   -1.438901002999e-12
   234   -5.591901174417e-02
   235    3.438638763984e-13
   236    1.137109720192e-11
   237   -1.313069192543e-01
   238    1.167296072964e-12
   239    2.298380354883e-11
   240   -5.440128037431e-02
   241    5.481237257379e-13
   242   -6.212006108046e-11
   243   -1.985374073768e-09
   244   -2.543154404710e-02
   245   -8.161279722156e-14
   246    5.001410805894e-10
   247   -1.499243858887e-09
   248    1.290671488721e-02
   249    1.370557956236e-13
   250    1.029963590676e-10
   251   -4.832264224934e-12
   252    1.410564089172e-02
   253   -1.275699269087e-13
   254    9.898958614006e-12
   255    1.473277850487e-14
Sym=X
Ene= 2.000113
Spin=Alpha
Occup=1
     1   -1.260594357423e-01
     2   -1.872051898250e-01
     3   -1.183387117879e-02
     4    4.141359866522e-02
     5   -1.694611193774e-02
     6    5.718004181878e-14
     7    1.091806739537e-02
     8    9.758967485341e-05
     9    7.376212045764e-04
    10    3.905021082114e-03
    11    1.274043291613e-02
    12    3.155001540190e-02
    13    1.397322761052e-02
    14    8.171216069047e-02
    15    9.026094485915e-02
    16    8.284088801279e-13
    17   -3.995372986217e-02
    18   -2.192564509175e-01
    19    1.395722632144e-01
    20    1.406571755054e-12
    21   -5.938938371710e-02
    22   -2.050184921159e-01
    23    6.711222975101e-02
    24    9.591952348860e-13
    25   -4.605128128219e-02
    26    1.710096368730e-01
    27    9.660101771170e-02
    28   -1.371344664118e-13
    29   -4.552236800599e-02
    30    1.744275425278e-02
    31   -7.506638011027e-03
    32    1.321112029258e-12
    33   -1.172796980854e-02
    34   -8.574592639791e-05
    35    1.436459605102e-02
    36   -7.286640291349e-14
    37   -7.575191155639e-03
    38    1.214623224714e-13
    39   -3.374653148003e-06
    40   -2.551056698806e-05
    41   -1.369595912632e-04
    42   -4.419210981244e-04
    43   -9.908083162764e-04
    44    2.179922361999e-04
    45   -4.049213591283e-03
    46    6.091929297316e-03
    47    8.759708051850e-13
    48   -1.757592828051e-02
    49    1.073147372251e-02
    50    8.737814212746e-03
    51    1.556060039134e-12
    52   -2.853757458966e-02
    53    4.660873278987e-02
    54    1.340763803736e-02
    55    1.125841914856e-12
    56    3.000862790321e-03
    57    1.883536112023e-01
    58    5.731883074745e-02
    59    2.123295395479e-13
    60    4.681754902017e-02
    61    2.403683903474e-02
    62    1.558543134132e-02
    63   -1.089811866153e-12
    64    1.683281282238e-03
    65   -5.430550851302e-03
    66    9.961845899142e-03
    67    6.485281811665e-14
    68    3.559160574591e-03
    69    1.350987115988e-13
    70    9.961803657231e-03
    71    1.985866491494e-02
    72    1.707058227145e-02
    73    3.171379072462e-02
    74   -1.265441026634e-04
    75    6.570019396050e-14
    76   -3.131121342268e-04
    77   -2.134775970489e-05
    78   -1.627580666133e-04
    79   -8.535226600417e-04
    80   -2.880117118597e-03
    81   -7.228977465750e-03
    82    1.718104406371e-03
    83   -1.744409799186e-02
    84    2.205627865611e-12
    85    9.525798137849e-13
    86    2.305035474262e-03
    87    4.467274074646e-02
    88   -1.025197427421e-11
    89    1.614306773583e-12
    90    2.636162075252e-03
    91   -2.992653233662e-02
    92    2.286605485432e-10
    93    1.224687689120e-12
    94   -2.184333521726e-02
    95   -2.913845648524e-01
    96    1.277479372422e-09
    97   -1.704015739665e-13
    98   -1.424529287666e-01
    99   -1.427517495463e-03
   100    3.776504080822e-10
   101    1.196271974914e-12
   102    2.770984561096e-03
   103   -1.726134850342e-03
   104   -5.136371609308e-12
   105    1.465612959085e-13
   106    5.377690491028e-03
   107    5.830286898102e-15
   108    6.087071753658e-03
   109    8.879780435090e-03
   110   -1.271027215181e-02
   111   -7.176157927415e-02
   112    2.727737578589e-12
   113    6.590930977593e-14
   114    1.869461129179e-03
   115   -3.374653307115e-06
   116   -2.551056821767e-05
   117   -1.369595973721e-04
   118   -4.419211191703e-04
   119   -9.908083659189e-04
   120    2.179922178258e-04
   121   -4.049213653656e-03
   122   -6.091929273406e-03
   123    9.067895873080e-13
   124   -1.757592829531e-02
   125    1.073147370782e-02
   126   -8.737814190563e-03
   127    1.617755204205e-12
   128   -2.853757459223e-02
   129    4.660873223133e-02
   130   -1.340763750821e-02
   131    1.174944190981e-12
   132    3.000862316857e-03
   133    1.883535981048e-01
   134   -5.731882198140e-02
   135    2.099233027177e-13
   136    4.681754791883e-02
   137    2.403683808296e-02
   138   -1.558543160652e-02
   139   -1.185780138722e-12
   140    1.683281340222e-03
   141   -5.430550846579e-03
   142   -9.961845897730e-03
   143    7.297030408595e-14
   144    3.559160571134e-03
   145   -1.362738824680e-13
   146    9.961803648720e-03
   147    1.985866491423e-02
   148    1.707058100637e-02
   149    3.171378630116e-02
   150    1.265440973833e-04
   151    6.737178401082e-14
   152   -3.131121334393e-04
   153    9.758967458094e-05
   154    7.376212024684e-04
   155    3.905021071591e-03
   156    1.274043288002e-02
   157    3.155001531645e-02
   158    1.397322757878e-02
   159    8.171216057609e-02
   160   -9.026094488344e-02
   161    8.597227718228e-13
   162   -3.995372988039e-02
   163   -2.192564509188e-01
   164   -1.395722632383e-01
   165    1.447889004217e-12
   166   -5.938938372495e-02
   167   -2.050184918474e-01
   168   -6.711223024405e-02
   169    1.011656652972e-12
   170   -4.605128185829e-02
   171    1.710096526602e-01
   172   -9.660102704983e-02
   173   -1.190646792351e-13
   174   -4.552236868256e-02
   175    1.744275492345e-02
   176    7.506638238919e-03
   177    1.418713553328e-12
   178   -1.172797038327e-02
   179   -8.574593188729e-05
   180   -1.436459604986e-02
   181   -8.871564848456e-14
   182   -7.575191152044e-03
   183   -1.235083890579e-13
   184   -1.260594357338e-01
   185   -1.872051898230e-01
   186   -1.183386971294e-02
   187    4.141360324506e-02
   188    1.694611194322e-02
   189    5.191766058406e-14
   190    1.091806739674e-02
   191   -3.274323031547e-05
   192   -2.480863286221e-04
   193   -1.306542179685e-03
   194   -4.278807986128e-03
   195   -1.047761078701e-02
   196   -4.358450006481e-03
   197   -2.679375969218e-02
   198   -9.873042447131e-13
   199    8.270025653443e-13
   200    5.791980608969e-03
   201    7.226941962298e-02
   202    2.130280098029e-12
   203    1.477539065043e-12
   204    1.884646053118e-02
   205    1.378301957573e-01