[Molden Format]
[Atoms] (Angs)
  H      1    1     -2.14003202      0.00000000      0.38146042
  C      2    6     -1.21205832      0.00000000     -0.17180643
  C      3    6     -1.20429565      0.00000000     -1.56369320
  H      4    1     -2.14371879      0.00000000     -2.09923439
  C      5    6     -0.00000000      0.00000000     -2.26269040
  H      6    1     -0.00000000      0.00000000     -3.34354440
  C      7    6      1.20429565      0.00000000     -1.56369320
  H      8    1      2.14371879      0.00000000     -2.09923439
  C      9    6      1.21205832     -0.00000000     -0.17180643
  H     10    1      2.14003202     -0.00000000      0.38146042
  C     11    6      0.00000000     -0.00000000      0.51110416
 Cl     12   17      0.00000000     -0.00000000      2.24203561
[GTO]
1    0
S    3    1.000000
   3.38650000E+01    2.54938000E-02 
   5.09479000E+00    1.90373000E-01 
   1.15879000E+00    8.52161000E-01 
S    1    1.000000
   3.25840000E-01    1.00000000E+00 
S    1    1.000000
   1.02741000E-01    1.00000000E+00 
S    1    1.000000
   3.60000000E-02    1.00000000E+00 
P    1    1.000000
   7.50000000E-01    1.00000000E+00 

2    0
S    1    1.000000
   4.56324000E+03    1.96665000E-03 
S    1    1.000000
   6.82024000E+02    1.52306000E-02 
S    1    1.000000
   1.54973000E+02    7.61269000E-02 
S    1    1.000000
   4.44553000E+01    2.60801000E-01 
S    1    1.000000
   1.30290000E+01    6.16462000E-01 
S    1    1.000000
   1.82773000E+00    2.21006000E-01 
SP   3    1.000000
   2.09642000E+01    1.14660000E-01   4.02487000E-02 
   4.80331000E+00    9.19999000E-01   2.37594000E-01 
   1.45933000E+00   -3.03068000E-03   8.15854000E-01 
SP   1    1.000000
   4.83456000E-01    1.00000000E+00   1.00000000E+00 
SP   1    1.000000
   1.45585000E-01    1.00000000E+00   1.00000000E+00 
SP   1    1.000000
   4.38000000E-02    1.00000000E+00   1.00000000E+00 
SP   1    1.000000
   1.31927711E-02    1.00000000E+00   1.00000000E+00 
D    1    1.000000
   6.26000000E-01    1.00000000E+00 

3    0
S    1    1.000000
   4.56324000E+03    1.96665000E-03 
S    1    1.000000
   6.82024000E+02    1.52306000E-02 
S    1    1.000000
   1.54973000E+02    7.61269000E-02 
S    1    1.000000
   4.44553000E+01    2.60801000E-01 
S    1    1.000000
   1.30290000E+01    6.16462000E-01 
S    1    1.000000
   1.82773000E+00    2.21006000E-01 
SP   3    1.000000
   2.09642000E+01    1.14660000E-01   4.02487000E-02 
   4.80331000E+00    9.19999000E-01   2.37594000E-01 
   1.45933000E+00   -3.03068000E-03   8.15854000E-01 
SP   1    1.000000
   4.83456000E-01    1.00000000E+00   1.00000000E+00 
SP   1    1.000000
   1.45585000E-01    1.00000000E+00   1.00000000E+00 
SP   1    1.000000
   4.38000000E-02    1.00000000E+00   1.00000000E+00 
SP   1    1.000000
   1.31927711E-02    1.00000000E+00   1.00000000E+00 
D    1    1.000000
   6.26000000E-01    1.00000000E+00 

4    0
S    3    1.000000
   3.38650000E+01    2.54938000E-02 
   5.09479000E+00    1.90373000E-01 
   1.15879000E+00    8.52161000E-01 
S    1    1.000000
   3.25840000E-01    1.00000000E+00 
S    1    1.000000
   1.02741000E-01    1.00000000E+00 
S    1    1.000000
   3.60000000E-02    1.00000000E+00 
P    1    1.000000
   7.50000000E-01    1.00000000E+00 

5    0
S    1    1.000000
   4.56324000E+03    1.96665000E-03 
S    1    1.000000
   6.82024000E+02    1.52306000E-02 
S    1    1.000000
   1.54973000E+02    7.61269000E-02 
S    1    1.000000
   4.44553000E+01    2.60801000E-01 
S    1    1.000000
   1.30290000E+01    6.16462000E-01 
S    1    1.000000
   1.82773000E+00    2.21006000E-01 
SP   3    1.000000
   2.09642000E+01    1.14660000E-01   4.02487000E-02 
   4.80331000E+00    9.19999000E-01   2.37594000E-01 
   1.45933000E+00   -3.03068000E-03   8.15854000E-01 
SP   1    1.000000
   4.83456000E-01    1.00000000E+00   1.00000000E+00 
SP   1    1.000000
   1.45585000E-01    1.00000000E+00   1.00000000E+00 
SP   1    1.000000
   4.38000000E-02    1.00000000E+00   1.00000000E+00 
SP   1    1.000000
   1.31927711E-02    1.00000000E+00   1.00000000E+00 
D    1    1.000000
   6.26000000E-01    1.00000000E+00 

6    0
S    3    1.000000
   3.38650000E+01    2.54938000E-02 
   5.09479000E+00    1.90373000E-01 
   1.15879000E+00    8.52161000E-01 
S    1    1.000000
   3.25840000E-01    1.00000000E+00 
S    1    1.000000
   1.02741000E-01    1.00000000E+00 
S    1    1.000000
   3.60000000E-02    1.00000000E+00 
P    1    1.000000
   7.50000000E-01    1.00000000E+00 

7    0
S    1    1.000000
   4.56324000E+03    1.96665000E-03 
S    1    1.000000
   6.82024000E+02    1.52306000E-02 
S    1    1.000000
   1.54973000E+02    7.61269000E-02 
S    1    1.000000
   4.44553000E+01    2.60801000E-01 
S    1    1.000000
   1.30290000E+01    6.16462000E-01 
S    1    1.000000
   1.82773000E+00    2.21006000E-01 
SP   3    1.000000
   2.09642000E+01    1.14660000E-01   4.02487000E-02 
   4.80331000E+00    9.19999000E-01   2.37594000E-01 
   1.45933000E+00   -3.03068000E-03   8.15854000E-01 
SP   1    1.000000
   4.83456000E-01    1.00000000E+00   1.00000000E+00 
SP   1    1.000000
   1.45585000E-01    1.00000000E+00   1.00000000E+00 
SP   1    1.000000
   4.38000000E-02    1.00000000E+00   1.00000000E+00 
SP   1    1.000000
   1.31927711E-02    1.00000000E+00   1.00000000E+00 
D    1    1.000000
   6.26000000E-01    1.00000000E+00 

8    0
S    3    1.000000
   3.38650000E+01    2.54938000E-02 
   5.09479000E+00    1.90373000E-01 
   1.15879000E+00    8.52161000E-01 
S    1    1.000000
   3.25840000E-01    1.00000000E+00 
S    1    1.000000
   1.02741000E-01    1.00000000E+00 
S    1    1.000000
   3.60000000E-02    1.00000000E+00 
P    1    1.000000
   7.50000000E-01    1.00000000E+00 

9    0
S    1    1.000000
   4.56324000E+03    1.96665000E-03 
S    1    1.000000
   6.82024000E+02    1.52306000E-02 
S    1    1.000000
   1.54973000E+02    7.61269000E-02 
S    1    1.000000
   4.44553000E+01    2.60801000E-01 
S    1    1.000000
   1.30290000E+01    6.16462000E-01 
S    1    1.000000
   1.82773000E+00    2.21006000E-01 
SP   3    1.000000
   2.09642000E+01    1.14660000E-01   4.02487000E-02 
   4.80331000E+00    9.19999000E-01   2.37594000E-01 
   1.45933000E+00   -3.03068000E-03   8.15854000E-01 
SP   1    1.000000
   4.83456000E-01    1.00000000E+00   1.00000000E+00 
SP   1    1.000000
   1.45585000E-01    1.00000000E+00   1.00000000E+00 
SP   1    1.000000
   4.38000000E-02    1.00000000E+00   1.00000000E+00 
SP   1    1.000000
   1.31927711E-02    1.00000000E+00   1.00000000E+00 
D    1    1.000000
   6.26000000E-01    1.00000000E+00 

10    0
S    3    1.000000
   3.38650000E+01    2.54938000E-02 
   5.09479000E+00    1.90373000E-01 
   1.15879000E+00    8.52161000E-01 
S    1    1.000000
   3.25840000E-01    1.00000000E+00 
S    1    1.000000
   1.02741000E-01    1.00000000E+00 
S    1    1.000000
   3.60000000E-02    1.00000000E+00 
P    1    1.000000
   7.50000000E-01    1.00000000E+00 

11    0
S    1    1.000000
   4.56324000E+03    1.96665000E-03 
S    1    1.000000
   6.82024000E+02    1.52306000E-02 
S    1    1.000000
   1.54973000E+02    7.61269000E-02 
S    1    1.000000
   4.44553000E+01    2.60801000E-01 
S    1    1.000000
   1.30290000E+01    6.16462000E-01 
S    1    1.000000
   1.82773000E+00    2.21006000E-01 
SP   3    1.000000
   2.09642000E+01    1.14660000E-01   4.02487000E-02 
   4.80331000E+00    9.19999000E-01   2.37594000E-01 
   1.45933000E+00   -3.03068000E-03   8.15854000E-01 
SP   1    1.000000
   4.83456000E-01    1.00000000E+00   1.00000000E+00 
SP   1    1.000000
   1.45585000E-01    1.00000000E+00   1.00000000E+00 
SP   1    1.000000
   4.38000000E-02    1.00000000E+00   1.00000000E+00 
SP   1    1.000000
   1.31927711E-02    1.00000000E+00   1.00000000E+00 
D    1    1.000000
   6.26000000E-01    1.00000000E+00 

12    0
S    6    1.000000
   1.05819000E+05    7.38000000E-04 
   1.58720000E+04    5.71800000E-03 
   3.61965000E+03    2.94950000E-02 
   1.03080000E+03    1.17286000E-01 
   3.39908000E+02    3.62949000E-01 
   1.24538000E+02    5.84149000E-01 
S    3    1.000000
   1.24538000E+02    1.34177000E-01 
   4.95135000E+01    6.24250000E-01 
   2.08056000E+01    2.91756000E-01 
S    1    1.000000
   6.58346000E+00    1.00000000E+00 
S    1    1.000000
   2.56468000E+00    1.00000000E+00 
S    1    1.000000
   5.59763000E-01    1.00000000E+00 
S    1    1.000000
   1.83273000E-01    1.00000000E+00 
P    5    1.000000
   5.89776000E+02    2.39100000E-03 
   1.39849000E+02    1.85040000E-02 
   4.51413000E+01    8.13770000E-02 
   1.68733000E+01    2.21552000E-01 
   6.74110000E+00    7.72569000E-01 
P    2    1.000000
   6.74110000E+00   -1.57224400E+00 
   2.77152000E+00    9.92389000E-01 
P    1    1.000000
   1.02387000E+00    1.00000000E+00 
P    1    1.000000
   3.81368000E-01    1.00000000E+00 
P    1    1.000000
   1.09437000E-01    1.00000000E+00 
SP   1    1.000000
   4.83000000E-02    1.00000000E+00   1.00000000E+00 
SP   1    1.000000
   1.45481928E-02    1.00000000E+00   1.00000000E+00 
D    1    1.000000
   7.50000000E-01    1.00000000E+00 

[MO]
Sym=X
Ene= 2.000183
Spin=Alpha
Occup=1
     1   -1.236946656677e-02
     2   -1.828429079427e-02
     3    6.897457587981e-03
     4    5.569055596718e-02
     5    5.051115758847e-04
     6    1.975213671674e-13
     7   -2.956277926243e-05
     8   -5.622004974220e-07
     9   -4.372171438403e-06
    10   -2.020316675144e-05
    11   -7.558604742611e-05
    12   -2.677441898950e-04
    13   -5.673090519618e-04
    14    7.740332914276e-04
    15    1.701639916790e-02
    16    2.488625323810e-12
    17    1.395568074023e-02
    18   -5.436053059833e-03
    19    3.090133912234e-02
    20    4.403546262323e-12
    21    2.260108817004e-02
    22   -2.500447840688e-02
    23    1.325042252178e-02
    24    2.434524207450e-12
    25   -2.116385107994e-02
    26    2.586400515074e-01
    27    1.076440099195e-01
    28    1.516227064022e-12
    29   -5.128908967427e-02
    30    1.713675140475e-02
    31   -1.586580863938e-03
    32   -2.397939452790e-12
    33   -3.078528115495e-02
    34    2.348410146500e-03
    35    1.150487706113e-02
    36   -7.275828851568e-14
    37    4.927652627835e-04
    38    4.875582767209e-13
    39    6.701381253551e-06
    40    5.070537889051e-05
    41    2.683803970726e-04
    42    8.878822726577e-04
    43    2.291353318722e-03
    44    6.202139265061e-04
    45    5.284892408150e-03
    46    1.070510415657e-03
    47    1.962186716204e-12
    48   -6.760377814301e-03
    49   -1.582541537453e-02
    50    1.297538709725e-03
    51    3.338168002437e-12
    52   -1.012608857317e-02
    53    1.997733226337e-03
    54    1.788914956988e-02
    55    2.481447220345e-12
    56    7.409298120299e-03
    57    2.700019105972e-01
    58    1.217403036777e-01
    59   -8.683890403677e-13
    60    6.096567906026e-02
    61    2.705691588772e-02
    62    1.357424102529e-02
    63    1.507825711651e-12
    64    1.069829468696e-02
    65   -1.974372685188e-03
    66    7.628277765409e-04
    67    2.543682254530e-13
    68   -1.290187110110e-04
    69    2.600491276205e-13
    70   -1.596331558917e-03
    71   -5.370594744785e-06
    72    1.735506599233e-02
    73    7.254411196155e-02
    74   -2.671609414133e-04
    75    1.308617739258e-13
    76   -4.120983997845e-05
    77   -7.150252933174e-06
    78   -5.430134710271e-05
    79   -2.836452189674e-04
    80   -9.357513846276e-04
    81   -2.325043371488e-03
    82   -1.285235896705e-03
    83   -5.088881609211e-03
    84    1.237196756312e-12
    85    1.770579247843e-12
    86   -4.701303648060e-03
    87    1.397710756133e-02
    88    1.353996432961e-12
    89    3.102423661581e-12
    90   -7.928098266645e-03
    91   -1.335844479121e-02
    92   -6.713477010410e-12
    93    2.042918034200e-12
    94   -1.964962961922e-02
    95   -4.663517995954e-01
    96    2.166913255571e-09
    97    8.420116152610e-13
    98   -1.388285642430e-01
    99   -1.065738196272e-02
   100   -1.192303909726e-11
   101   -1.256152179855e-12
   102   -5.660011049320e-03
   103   -7.462648259221e-04
   104    1.575472178200e-13
   105    3.147313185469e-13
   106    5.926793991475e-04
   107    1.840271267388e-15
   108    6.375870753054e-03
   109    7.198662203141e-03
   110   -4.393776964290e-03
   111   -4.322264624818e-02
   112    6.959373927338e-13
   113    1.408845244395e-13
   114    1.240614791709e-03
   115    6.701381078635e-06
   116    5.070537753400e-05
   117    2.683803903021e-04
   118    8.878822494370e-04
   119    2.291353263894e-03
   120    6.202139070076e-04
   121    5.284892332323e-03
   122   -1.070510416369e-03
   123    1.977191637540e-12
   124   -6.760377814060e-03
   125   -1.582541536753e-02
   126   -1.297538712554e-03
   127    3.353300827760e-12
   128   -1.012608857281e-02
   129    1.997733249398e-03
   130   -1.788914956269e-02
   131    2.498869363796e-12
   132    7.409298094625e-03
   133    2.700019079243e-01
   134   -1.217403010410e-01
   135   -8.630629435920e-13
   136    6.096568196489e-02
   137    2.705691575905e-02
   138   -1.357424087177e-02
   139    1.523383750130e-12
   140    1.069829487469e-02
   141   -1.974372684353e-03
   142   -7.628277764285e-04
   143    2.550447856147e-13
   144   -1.290187107647e-04
   145   -2.614658129139e-13
   146   -1.596331557152e-03
   147   -5.370594781967e-06
   148    1.735506596507e-02
   149    7.254411164032e-02
   150    2.671609409682e-04
   151    1.320785172828e-13
   152   -4.120984022948e-05
   153   -5.622007661185e-07
   154   -4.372173512862e-06
   155   -2.020317711696e-05
   156   -7.558608297706e-05
   157   -2.677442739400e-04
   158   -5.673090826760e-04
   159    7.740331768124e-04
   160   -1.701639916224e-02
   161    2.492572248564e-12
   162    1.395568073958e-02
   163   -5.436053049220e-03
   164   -3.090133911478e-02
   165    4.414662788576e-12
   166    2.260108817188e-02
   167   -2.500447841229e-02
   168   -1.325042250032e-02
   169    2.441022339814e-12
   170   -2.116385111716e-02
   171    2.586400564104e-01
   172   -1.076440130389e-01
   173    1.521402245162e-12
   174   -5.128908630985e-02
   175    1.713675157364e-02
   176    1.586580759544e-03
   177   -2.411102212294e-12
   178   -3.078528122175e-02
   179    2.348410146999e-03
   180   -1.150487705889e-02
   181   -7.720130810497e-14
   182    4.927652626809e-04
   183   -4.886939830895e-13
   184   -1.236946656112e-02
   185   -1.828429078789e-02
   186    6.897457626885e-03
   187    5.569055637948e-02
   188   -5.051115768619e-04
   189    1.977414597704e-13
   190   -2.956277954668e-05
   191   -9.266343938385e-05
   192   -6.933313851262e-04
   193   -3.742040777698e-03
   194   -1.199226385921e-02
   195   -3.120350059489e-02
   196   -2.061677813081e-02
   197   -8.214596209877e-02
   198   -2.517244276364e-12
   199    3.819129930457e-12
   200    7.227393967358e-02
   201    2.676933341690e-01
   202   -4.633715901877e-12
   203    6.721151979338e-12
   204    1.434322727231e-01
   205    2.797690953048e-01
   206    1.916515915781e-11
   207    5.283956016790e-12
   208    1.646201807288e-01
   209   -4.179317884231e-01
   210   -2.956264970364e-09
   211   -2.130330314543e-12
   212    4.794334805203e-01
   213   -7.509931812080e-03
   214   -2.707413388560e-11
   215    3.362564373296e-12
   216    1.079890133298e-01
   217    2.013306497672e-02
   218   -8.627752888207e-13
   219    2.178939663345e-13
   220    2.525240871765e-03
   221    1.644363354592e-15
   222   -1.950098707573e-02
   223   -5.683296233528e-02
   224    1.156763827087e-01
   225    2.192056494060e-01
   226   -3.255361097732e-01
   227   -4.394110382139e-01
   228    2.099534392631e-11
   229    2.477711470099e-12
   230    2.273656070379e-01
   231    5.241863012589e-12
   232    8.558008279603e-13
   233    5.567905350718e-02
   234   -8.915161055170e-12
   235    5.731977814147e-12
   236   -1.670471439040e-01
   237   -2.199703310601e-11
   238    1.298541240104e-11
   239   -3.711085814922e-01
   240   -1.557597399182e-11
   241    6.963985150466e-12
   242   -7.175539590152e-02
   243   -4.713187174761e-01
   244    1.175735496931e-10
   245   -8.150164660327e-13
   246    1.020716930222e-01
   247   -1.021893923977e-01
   248   -3.048465168263e-11
   249   -5.006013461310e-15
   250   -2.170797218668e-03
   251    5.151879048616e-02
   252    6.458532134033e-13
   253   -8.736610002507e-13
   254   -1.158367119183e-03
   255    4.926329595480e-15
Sym=X
Ene= 2.000129
Spin=Alpha
Occup=1
     1   -8.687170829047e-03
     2   -1.217706958723e-02
     3    2.175539255511e-02
     4   -3.734664775960e-02
     5   -3.907198155387e-03
     6   -1.447773111824e-15
     7   -1.898440409493e-03
     8    2.306863774626e-05
     9    1.739476104405e-04
    10    9.223343655047e-04
    11    3.007025587628e-03
    12    7.742456438576e-03
    13    5.409239185682e-03
    14    1.761460300145e-02
    15   -1.466238012309e-02
    16    5.986564146463e-13
    17   -2.658050532209e-02
    18   -5.505395982993e-02
    19   -2.673007037636e-02
    20    1.102090923172e-12
    21   -3.814674616182e-02
    22    1.451304065377e-01
    23    6.801072496695e-02
    24    1.328005679783e-13
    25    4.344830193669e-02
    26   -1.307744129659e+00
    27   -4.997264784162e-01
    28    6.478924080407e-13
    29   -7.017172736137e-01
    30   -2.516843919098e-02
    31   -8.139181652271e-02
    32    3.726362008043e-12
    33    1.328995522091e-02
    34    1.584229631004e-03
    35   -5.427653595222e-03
    36   -3.670711355744e-14
    37   -4.602157363208e-03
    38    2.128460681002e-13
    39   -7.436444733655e-06
    40   -5.630664836581e-05
    41   -2.979834563941e-04
    42   -9.858956916496e-04
    43   -2.510090226119e-03
    44   -2.438674865969e-04
    45   -6.096686082895e-03
    46    9.802392542828e-05
    47    2.199905736926e-13
    48    8.072463054107e-03
    49    1.874640530903e-02
    50    1.161038798177e-03
    51    3.349578866417e-13
    52    7.069176616952e-03
    53   -8.326585606846e-03
    54   -3.647663730056e-02
    55    3.216024046711e-13
    56    1.075159335948e-02
    57   -1.635298263725e-01
    58    2.613980960059e-01
    59   -2.593196140131e-13
    60   -3.815496383129e-01
    61   -1.210592123548e-02
    62    6.463343899715e-02
    63   -4.556841883222e-12
    64   -2.021335924645e-02
    65    3.627766988916e-04
    66   -1.129954653731e-03
    67    1.416840159268e-13
    68    5.265304836850e-04
    69   -1.042980257986e-14
    70    2.599115599386e-04
    71   -6.961268521148e-03
    72   -1.131999864531e-02
    73    1.358844118672e-02
    74   -1.616038067670e-04
    75   -6.805076514102e-15
    76   -1.682307846864e-04
    77   -4.553584779621e-15
    78   -3.634620573443e-14
    79   -1.697412761127e-13
    80   -5.917093049625e-13
    81   -1.551628801657e-12
    82   -1.377340351886e-12
    83   -1.164915047809e-12
    84   -9.529953633354e-04
    85    1.400087879143e-13
    86   -3.698086968940e-12
    87    2.964549327059e-12
    88   -1.997233865555e-03
    89    2.650735011220e-13
    90   -5.754212386595e-12
    91   -9.836507449025e-11
    92   -2.449758900109e-02
    93   -5.994629454106e-14
    94    2.507196285519e-12
    95    4.536575327301e-10
    96    4.021856940178e-01
    97    1.037910888947e-13
    98    3.899210398174e-10
    99    7.048407097329e-11
   100   -4.374308267421e-02
   101    4.827305377233e-12
   102    4.081582942915e-11
   103    5.581941703841e-13
   104   -8.390276239969e-04
   105   -7.778369919520e-14
   106   -7.771749973832e-13
   107   -4.433022308742e-16
   108    4.540891167710e-12
   109    7.925727119603e-12
   110    7.753454852154e-11
   111    2.920803466616e-10
   112    3.591048365820e-04
   113    1.172513024642e-13
   114    5.557579187016e-13
   115    7.436444772757e-06
   116    5.630664866229e-05
   117    2.979834578777e-04
   118    9.858956967538e-04
   119    2.510090238029e-03
   120    2.438674902439e-04
   121    6.096686099873e-03
   122    9.802392584336e-05
   123    2.524017315638e-13
   124   -8.072463049754e-03
   125   -1.874640530936e-02
   126    1.161038798699e-03
   127    3.852737950454e-13
   128   -7.069176609175e-03
   129    8.326585552498e-03
   130   -3.647663734491e-02
   131    3.351578325627e-13
   132   -1.075159343339e-02
   133    1.635298261884e-01
   134    2.613980961199e-01
   135   -2.727524648931e-13
   136    3.815496383415e-01
   137    1.210592129493e-02
   138    6.463343905826e-02
   139   -4.562996002937e-12
   140    2.021335920325e-02
   141   -3.627766971797e-04
   142   -1.129954652738e-03
   143    1.533207597343e-13
   144   -5.265304854663e-04
   145    1.212698232846e-14
   146   -2.599115648789e-04
   147    6.961268512515e-03
   148    1.131999862519e-02
   149   -1.358844121965e-02
   150   -1.616038066060e-04
   151   -4.768565302756e-15
   152    1.682307851176e-04
   153   -2.306863769359e-05
   154   -1.739476100384e-04
   155   -9.223343634926e-04
   156   -3.007025580722e-03
   157   -7.742456422149e-03
   158   -5.409239179111e-03
   159   -1.761460298016e-02
   160   -1.466238012140e-02
   161    6.272995347427e-13
   162    2.658050531350e-02
   163    5.505395982699e-02
   164   -2.673007037714e-02
   165    1.138916821715e-12
   166    3.814674614969e-02
   167   -1.451304064662e-01
   168    6.801072504262e-02
   169    2.357205598356e-13
   170   -4.344830201017e-02
   171    1.307744129296e+00
   172   -4.997264781607e-01
   173    6.140168689718e-13
   174    7.017172738635e-01
   175    2.516843932374e-02
   176   -8.139181659094e-02
   177    3.765148105775e-12
   178   -1.328995508816e-02
   179   -1.584229630893e-03
   180   -5.427653597567e-03
   181   -2.878262177894e-14
   182    4.602157362381e-03
   183   -2.437317716010e-13
   184    8.687170823333e-03
   185    1.217706958021e-02
   186   -2.175539269106e-02
   187    3.734664755211e-02
   188   -3.907198155154e-03
   189   -2.430569791823e-14
   190    1.898440408936e-03
   191    5.614488002057e-15
   192    4.665257639616e-14
   193    2.298111073186e-13
   194    7.941398420197e-13
   195    1.884983842814e-12
   196    7.456108406441e-13
   197    6.080214264295e-13
   198    6.559833907454e-02
   199    1.774535654051e-12
   200    4.774251044214e-12
   201    8.136278675692e-12
   202    9.524829013625e-02
   203    3.184758259455e-12
   204    1.034381844762e-11
   205    8.056415752524e-11
   206    2.314187802248e-01
   207    2.569643604081e-12
   208   -6.159448168366e-12
   209    2.922056898427e-10
   210   -1.402580208241e+00
   211   -1.133159552143e-12
   212    2.084265839134e-11
   213    3.131490089146e-11
   214    3.444359607814e-02
   215   -2.713590871650e-12
   216    6.289984512068e-11
   217    2.582209138682e-12
   218    1.740330718787e-02
   219    4.390564190234e-13
   220   -1.490991982167e-12
   221    3.018036133608e-14
   222    2.299055777717e-12
   223    4.318657544947e-12
   224   -2.208062177829e-12
   225   -3.646392151093e-12
   226    2.793966424463e-12
   227   -2.141928809863e-11
   228   -3.180406595255e-01
   229    1.480613540565e-11
   230   -1.061873521037e-11
   231   -7.656595621152e-02
   232    4.135561483448e-12
   233   -3.068994332763e-12
   234    2.290056619791e-01
   235    6.311428670863e-12
   236   -9.679633405181e-12
   237    5.404437980246e-01
   238    1.316005081893e-11
   239   -1.975221639031e-11
   240    3.306402427246e-01
   241    7.787756655267e-12
   242   -1.196641573533e-12
   243   -8.400932583884e-11
   244    4.292395262782e-04
   245   -1.147603290233e-12
   246    4.313317160284e-11
   247   -3.735924352628e-10
   248    2.733382197259e-02
   249    1.688822725957e-15
   250    5.150047799317e-11
   251    3.152723433962e-12
   252   -1.735269184494e-02
   253   -6.681885051766e-13
   254   -1.068924991312e-12
   255    1.203966085270e-14
Sym=X
Ene= 2.000095
Spin=Alpha
Occup=1
     1   -7.712268097739e-13
     2   -9.876262139033e-13
     3    9.820373119038e-13
     4   -3.219895682635e-12
     5   -8.797391844954e-14
     6   -2.456784007584e-03
     7   -1.823817013899e-13
     8    1.205531375900e-15
     9    4.338539835123e-15
    10    3.089757009217e-14
    11    9.719371223040e-14
    12    2.452799198922e-13
    13    6.241749735874e-14
    14    6.254757719913e-13
    15   -1.179541607775e-12
    16   -2.552303216077e-02
    17   -2.459260356616e-12
    18   -1.502848595999e-12
    19   -1.652901176882e-12
    20   -4.694047964599e-02
    21   -3.644056954188e-12
    22    3.003325088975e-13
    23    8.286693484556e-13
    24   -6.282527863358e-03
    25   -1.775394891804e-12
    26   -2.704302303412e-11
    27   -1.120539346113e-11
    28   -4.911712049337e-02
    29   -1.486834212581e-11
    30    5.008276688264e-13
    31   -8.553773248004e-12
    32    1.084506119630e-01
    33   -8.795005910730e-12
    34    5.388665122011e-13
    35    1.570084562886e-13
    36   -3.277551568458e-03
    37   -3.838268303306e-13
    38   -8.057468640568e-03
    39   -1.425235238649e-17
    40   -5.888761138471e-17
    41   -1.953536834726e-15
    42   -4.271943443399e-15
    43   -4.505998362962e-14
    44   -1.107981990685e-13
    45   -6.321856432458e-15
    46    3.959969851089e-13
    47   -6.627316030957e-03
    48    2.142559533857e-12
    49    7.899004673253e-13
    50    6.614351012648e-13
    51   -9.546046484783e-03
    52    3.185195204991e-12
    53   -8.976119908898e-13
    54    4.915579918254e-13
    55   -7.229964866572e-03
    56    3.273247737616e-12
    57    9.785575172616e-12
    58    9.598373277343e-12
    59    3.230259551123e-02
    60   -1.035616288415e-11
    61    3.685508961358e-12
    62    4.670464525136e-12
    63   -7.837218081738e-02
    64    2.598265029647e-12
    65    2.400585993486e-13
    66   -2.194810897419e-13
    67   -3.566191301944e-03
    68   -1.663558011117e-13
    69   -2.973522255216e-04
    70   -1.256462162786e-12
    71   -2.009729184681e-12
    72    2.846946676299e-13
    73   -3.944782532142e-13
    74   -1.106435747222e-13
    75   -6.145866851612e-05
    76   -3.134101400455e-15
    77    6.810519702581e-15
    78    5.491624341765e-14
    79    2.694803130619e-13
    80    9.306501632539e-13
    81    2.190560014695e-12
    82    8.050712353352e-13
    83    3.105089905600e-12
    84   -1.481201146580e-14
    85   -2.464805280105e-04
    86   -5.490091905594e-13
    87   -7.570946113187e-13
    88    2.696575379853e-14
    89   -9.358059807821e-04
    90   -8.631801904321e-13
    91   -1.885017462447e-12
    92   -1.465908040515e-12
    93    5.773496355310e-03
    94   -2.173883610350e-12
    95    2.557855070544e-12
    96    1.550987140291e-11
    97   -2.636017061255e-02
    98   -3.904680795814e-12
    99    5.867761950206e-12
   100   -7.656529170814e-13
   101    6.841866794026e-02
   102   -2.226903851758e-12
   103    3.780730666700e-13
   104   -4.810874966596e-14
   105   -4.981500209076e-04
   106   -2.581494899150e-13
   107   -7.565623609935e-15
   108    6.455909496273e-13
   109    1.083267795655e-12
   110    1.669944728878e-13
   111   -5.406612005669e-12
   112    2.752911712196e-14
   113   -1.744544340293e-04
   114    1.920681339482e-14
   115    3.435714359264e-16
   116    4.297302527515e-15
   117    1.888456605257e-14
   118    6.036582281769e-14
   119    1.884500517364e-13
   120    7.168928644476e-14
   121    2.746370299610e-13
   122   -3.671188770969e-13
   123   -6.627316030972e-03
   124    1.642651021963e-12
   125   -1.110952529588e-12
   126   -4.988850271373e-13
   127   -9.546046484837e-03
   128    2.684902779051e-12
   129    1.336742334481e-12
   130   -2.791925965010e-12
   131   -7.229964866627e-03
   132    1.678681013438e-12
   133    1.097137425071e-11
   134    1.189064242162e-11
   135    3.230259551149e-02
   136    1.527008276054e-11
   137    5.207088574900e-12
   138    1.027455452151e-12
   139   -7.837218082224e-02
   140    6.068276315343e-12
   141    1.665687938724e-13
   142    4.735612412049e-14
   143   -3.566191301966e-03
   144   -2.034720194111e-13
   145    2.973522255489e-04
   146   -1.136385216356e-12
   147   -1.184683049030e-12
   148   -1.790261070944e-13
   149   -4.665836008601e-12
   150    1.519502431970e-13
   151   -6.145866849465e-05
   152    1.647673683592e-14
   153   -7.586438203742e-16
   154   -6.190518772915e-15
   155   -3.255972965758e-14
   156   -1.056232553627e-13
   157   -2.926025235621e-13
   158   -1.857729600655e-13
   159   -4.271494574169e-13
   160   -6.682471032814e-13
   161   -2.552303216082e-02
   162   -8.723365025968e-13
   163    8.091559719997e-13
   164   -1.375313681704e-12
   165   -4.694047964606e-02
   166   -1.319250256761e-12
   167   -3.990024103455e-12
   168    1.296353591756e-12
   169   -6.282527863425e-03
   170   -3.706216644040e-12
   171    3.006998733631e-11
   172   -1.717288488128e-11
   173   -4.911712049376e-02
   174    2.495864337935e-11
   175    2.703891682705e-12
   176   -4.988360880294e-12
   177    1.084506119684e-01
   178   -1.406213121923e-11
   179    4.360419069358e-13
   180   -6.182026290061e-13
   181   -3.277551568442e-03
   182   -1.480130060829e-13
   183    8.057468640601e-03
   184   -9.453383443305e-13
   185   -1.216270114329e-12
   186   -1.293311565876e-12
   187    1.736951979870e-12
   188   -1.128029181841e-14
   189   -2.456784007563e-03
   190    3.548426063415e-16
   191   -1.987105377097e-15
   192   -2.181680805057e-14
   193   -1.094958497123e-13
   194   -3.609680043556e-13
   195   -9.368914352445e-13
   196   -6.656533182477e-13
   197   -2.217334016940e-12
   198    2.348494052288e-12
   199   -7.412347589702e-02
   200    4.953131325966e-12
   201    6.620082602750e-12
   202    3.488974799766e-12
   203   -1.330731794627e-01
   204    9.336281731536e-12
   205    8.856401820322e-12