[Molden Format]
[Atoms] (Angs)
  H      1    1     -2.14003202      0.00000000      0.38146042
  C      2    6     -1.21205832      0.00000000     -0.17180643
  C      3    6     -1.20429565      0.00000000     -1.56369320
  H      4    1     -2.14371879      0.00000000     -2.09923439
  C      5    6     -0.00000000      0.00000000     -2.26269040
  H      6    1     -0.00000000      0.00000000     -3.34354440
  C      7    6      1.20429565      0.00000000     -1.56369320
  H      8    1      2.14371879      0.00000000     -2.09923439
  C      9    6      1.21205832     -0.00000000     -0.17180643
  H     10    1      2.14003202     -0.00000000      0.38146042
  C     11    6      0.00000000     -0.00000000      0.51110416
 Cl     12   17      0.00000000     -0.00000000      2.24203561
[GTO]
1    0
S    3    1.000000
   3.38650000E+01    2.54938000E-02 
   5.09479000E+00    1.90373000E-01 
   1.15879000E+00    8.52161000E-01 
S    1    1.000000
   3.25840000E-01    1.00000000E+00 
S    1    1.000000
   1.02741000E-01    1.00000000E+00 
S    1    1.000000
   3.60000000E-02    1.00000000E+00 
P    1    1.000000
   7.50000000E-01    1.00000000E+00 

2    0
S    1    1.000000
   4.56324000E+03    1.96665000E-03 
S    1    1.000000
   6.82024000E+02    1.52306000E-02 
S    1    1.000000
   1.54973000E+02    7.61269000E-02 
S    1    1.000000
   4.44553000E+01    2.60801000E-01 
S    1    1.000000
   1.30290000E+01    6.16462000E-01 
S    1    1.000000
   1.82773000E+00    2.21006000E-01 
SP   3    1.000000
   2.09642000E+01    1.14660000E-01   4.02487000E-02 
   4.80331000E+00    9.19999000E-01   2.37594000E-01 
   1.45933000E+00   -3.03068000E-03   8.15854000E-01 
SP   1    1.000000
   4.83456000E-01    1.00000000E+00   1.00000000E+00 
SP   1    1.000000
   1.45585000E-01    1.00000000E+00   1.00000000E+00 
SP   1    1.000000
   4.38000000E-02    1.00000000E+00   1.00000000E+00 
SP   1    1.000000
   1.31927711E-02    1.00000000E+00   1.00000000E+00 
D    1    1.000000
   6.26000000E-01    1.00000000E+00 

3    0
S    1    1.000000
   4.56324000E+03    1.96665000E-03 
S    1    1.000000
   6.82024000E+02    1.52306000E-02 
S    1    1.000000
   1.54973000E+02    7.61269000E-02 
S    1    1.000000
   4.44553000E+01    2.60801000E-01 
S    1    1.000000
   1.30290000E+01    6.16462000E-01 
S    1    1.000000
   1.82773000E+00    2.21006000E-01 
SP   3    1.000000
   2.09642000E+01    1.14660000E-01   4.02487000E-02 
   4.80331000E+00    9.19999000E-01   2.37594000E-01 
   1.45933000E+00   -3.03068000E-03   8.15854000E-01 
SP   1    1.000000
   4.83456000E-01    1.00000000E+00   1.00000000E+00 
SP   1    1.000000
   1.45585000E-01    1.00000000E+00   1.00000000E+00 
SP   1    1.000000
   4.38000000E-02    1.00000000E+00   1.00000000E+00 
SP   1    1.000000
   1.31927711E-02    1.00000000E+00   1.00000000E+00 
D    1    1.000000
   6.26000000E-01    1.00000000E+00 

4    0
S    3    1.000000
   3.38650000E+01    2.54938000E-02 
   5.09479000E+00    1.90373000E-01 
   1.15879000E+00    8.52161000E-01 
S    1    1.000000
   3.25840000E-01    1.00000000E+00 
S    1    1.000000
   1.02741000E-01    1.00000000E+00 
S    1    1.000000
   3.60000000E-02    1.00000000E+00 
P    1    1.000000
   7.50000000E-01    1.00000000E+00 

5    0
S    1    1.000000
   4.56324000E+03    1.96665000E-03 
S    1    1.000000
   6.82024000E+02    1.52306000E-02 
S    1    1.000000
   1.54973000E+02    7.61269000E-02 
S    1    1.000000
   4.44553000E+01    2.60801000E-01 
S    1    1.000000
   1.30290000E+01    6.16462000E-01 
S    1    1.000000
   1.82773000E+00    2.21006000E-01 
SP   3    1.000000
   2.09642000E+01    1.14660000E-01   4.02487000E-02 
   4.80331000E+00    9.19999000E-01   2.37594000E-01 
   1.45933000E+00   -3.03068000E-03   8.15854000E-01 
SP   1    1.000000
   4.83456000E-01    1.00000000E+00   1.00000000E+00 
SP   1    1.000000
   1.45585000E-01    1.00000000E+00   1.00000000E+00 
SP   1    1.000000
   4.38000000E-02    1.00000000E+00   1.00000000E+00 
SP   1    1.000000
   1.31927711E-02    1.00000000E+00   1.00000000E+00 
D    1    1.000000
   6.26000000E-01    1.00000000E+00 

6    0
S    3    1.000000
   3.38650000E+01    2.54938000E-02 
   5.09479000E+00    1.90373000E-01 
   1.15879000E+00    8.52161000E-01 
S    1    1.000000
   3.25840000E-01    1.00000000E+00 
S    1    1.000000
   1.02741000E-01    1.00000000E+00 
S    1    1.000000
   3.60000000E-02    1.00000000E+00 
P    1    1.000000
   7.50000000E-01    1.00000000E+00 

7    0
S    1    1.000000
   4.56324000E+03    1.96665000E-03 
S    1    1.000000
   6.82024000E+02    1.52306000E-02 
S    1    1.000000
   1.54973000E+02    7.61269000E-02 
S    1    1.000000
   4.44553000E+01    2.60801000E-01 
S    1    1.000000
   1.30290000E+01    6.16462000E-01 
S    1    1.000000
   1.82773000E+00    2.21006000E-01 
SP   3    1.000000
   2.09642000E+01    1.14660000E-01   4.02487000E-02 
   4.80331000E+00    9.19999000E-01   2.37594000E-01 
   1.45933000E+00   -3.03068000E-03   8.15854000E-01 
SP   1    1.000000
   4.83456000E-01    1.00000000E+00   1.00000000E+00 
SP   1    1.000000
   1.45585000E-01    1.00000000E+00   1.00000000E+00 
SP   1    1.000000
   4.38000000E-02    1.00000000E+00   1.00000000E+00 
SP   1    1.000000
   1.31927711E-02    1.00000000E+00   1.00000000E+00 
D    1    1.000000
   6.26000000E-01    1.00000000E+00 

8    0
S    3    1.000000
   3.38650000E+01    2.54938000E-02 
   5.09479000E+00    1.90373000E-01 
   1.15879000E+00    8.52161000E-01 
S    1    1.000000
   3.25840000E-01    1.00000000E+00 
S    1    1.000000
   1.02741000E-01    1.00000000E+00 
S    1    1.000000
   3.60000000E-02    1.00000000E+00 
P    1    1.000000
   7.50000000E-01    1.00000000E+00 

9    0
S    1    1.000000
   4.56324000E+03    1.96665000E-03 
S    1    1.000000
   6.82024000E+02    1.52306000E-02 
S    1    1.000000
   1.54973000E+02    7.61269000E-02 
S    1    1.000000
   4.44553000E+01    2.60801000E-01 
S    1    1.000000
   1.30290000E+01    6.16462000E-01 
S    1    1.000000
   1.82773000E+00    2.21006000E-01 
SP   3    1.000000
   2.09642000E+01    1.14660000E-01   4.02487000E-02 
   4.80331000E+00    9.19999000E-01   2.37594000E-01 
   1.45933000E+00   -3.03068000E-03   8.15854000E-01 
SP   1    1.000000
   4.83456000E-01    1.00000000E+00   1.00000000E+00 
SP   1    1.000000
   1.45585000E-01    1.00000000E+00   1.00000000E+00 
SP   1    1.000000
   4.38000000E-02    1.00000000E+00   1.00000000E+00 
SP   1    1.000000
   1.31927711E-02    1.00000000E+00   1.00000000E+00 
D    1    1.000000
   6.26000000E-01    1.00000000E+00 

10    0
S    3    1.000000
   3.38650000E+01    2.54938000E-02 
   5.09479000E+00    1.90373000E-01 
   1.15879000E+00    8.52161000E-01 
S    1    1.000000
   3.25840000E-01    1.00000000E+00 
S    1    1.000000
   1.02741000E-01    1.00000000E+00 
S    1    1.000000
   3.60000000E-02    1.00000000E+00 
P    1    1.000000
   7.50000000E-01    1.00000000E+00 

11    0
S    1    1.000000
   4.56324000E+03    1.96665000E-03 
S    1    1.000000
   6.82024000E+02    1.52306000E-02 
S    1    1.000000
   1.54973000E+02    7.61269000E-02 
S    1    1.000000
   4.44553000E+01    2.60801000E-01 
S    1    1.000000
   1.30290000E+01    6.16462000E-01 
S    1    1.000000
   1.82773000E+00    2.21006000E-01 
SP   3    1.000000
   2.09642000E+01    1.14660000E-01   4.02487000E-02 
   4.80331000E+00    9.19999000E-01   2.37594000E-01 
   1.45933000E+00   -3.03068000E-03   8.15854000E-01 
SP   1    1.000000
   4.83456000E-01    1.00000000E+00   1.00000000E+00 
SP   1    1.000000
   1.45585000E-01    1.00000000E+00   1.00000000E+00 
SP   1    1.000000
   4.38000000E-02    1.00000000E+00   1.00000000E+00 
SP   1    1.000000
   1.31927711E-02    1.00000000E+00   1.00000000E+00 
D    1    1.000000
   6.26000000E-01    1.00000000E+00 

12    0
S    6    1.000000
   1.05819000E+05    7.38000000E-04 
   1.58720000E+04    5.71800000E-03 
   3.61965000E+03    2.94950000E-02 
   1.03080000E+03    1.17286000E-01 
   3.39908000E+02    3.62949000E-01 
   1.24538000E+02    5.84149000E-01 
S    3    1.000000
   1.24538000E+02    1.34177000E-01 
   4.95135000E+01    6.24250000E-01 
   2.08056000E+01    2.91756000E-01 
S    1    1.000000
   6.58346000E+00    1.00000000E+00 
S    1    1.000000
   2.56468000E+00    1.00000000E+00 
S    1    1.000000
   5.59763000E-01    1.00000000E+00 
S    1    1.000000
   1.83273000E-01    1.00000000E+00 
P    5    1.000000
   5.89776000E+02    2.39100000E-03 
   1.39849000E+02    1.85040000E-02 
   4.51413000E+01    8.13770000E-02 
   1.68733000E+01    2.21552000E-01 
   6.74110000E+00    7.72569000E-01 
P    2    1.000000
   6.74110000E+00   -1.57224400E+00 
   2.77152000E+00    9.92389000E-01 
P    1    1.000000
   1.02387000E+00    1.00000000E+00 
P    1    1.000000
   3.81368000E-01    1.00000000E+00 
P    1    1.000000
   1.09437000E-01    1.00000000E+00 
SP   1    1.000000
   4.83000000E-02    1.00000000E+00   1.00000000E+00 
SP   1    1.000000
   1.45481928E-02    1.00000000E+00   1.00000000E+00 
D    1    1.000000
   7.50000000E-01    1.00000000E+00 

[MO]
Sym=X
Ene= -0.002094
Spin=Alpha
Occup=1
     1    3.816911865937e-05
     2    5.442665695717e-05
     3    1.049288883434e-04
     4    5.930218016504e-05
     5    6.378469771603e-07
     6    1.033817278842e-16
     7    3.844047988431e-05
     8    7.465819482524e-05
     9    5.780593364311e-04
    10    2.883094358053e-03
    11    9.901222194296e-03
    12    2.337128238764e-02
    13    8.537427097874e-03
    14    3.138793568289e-02
    15   -2.658210074432e-06
    16   -3.403091639819e-16
    17    7.111509687173e-05
    18   -1.652895740944e-04
    19    6.908601287320e-05
    20    9.840640126509e-16
    21    3.897619487648e-04
    22    1.278997841780e-04
    23   -4.260662764056e-05
    24   -3.402667419917e-15
    25   -2.744810170386e-04
    26   -9.179848409031e-04
    27   -8.199743353954e-06
    28    7.098184231735e-15
    29    1.960096650173e-04
    30   -3.473773757442e-05
    31   -6.292828310516e-05
    32   -6.420782861157e-14
    33   -4.658139987068e-05
    34   -2.079589068071e-04
    35    3.256145206648e-05
    36    8.876265521209e-17
    37    1.140475662268e-04
    38    2.932917141595e-16
    39   -7.808485813171e-04
    40   -6.045055958761e-03
    41   -3.015512826170e-02
    42   -1.035336844177e-01
    43   -2.445793228699e-01
    44   -8.934675784370e-02
    45   -3.274586569630e-01
    46    2.451987897898e-05
    47    7.962372729562e-16
    48   -3.457925050998e-06
    49   -9.683742482720e-04
    50   -4.442093286724e-05
    51   -1.995386187469e-15
    52   -4.776145926980e-05
    53   -9.045493967953e-04
    54   -2.408898748308e-04
    55    3.484720838260e-15
    56   -6.812840555054e-05
    57    1.216356846891e-03
    58    2.580390045080e-04
    59   -1.467233935045e-14
    60    1.354537085815e-04
    61    7.995480150979e-05
    62    1.230856917466e-04
    63    1.290960946761e-13
    64    4.404877157708e-05
    65   -1.040143953452e-04
    66    2.464577076619e-05
    67   -6.748627280818e-16
    68   -7.946973001406e-05
    69    5.382604588703e-16
    70   -3.243730013027e-04
    71   -4.233519646235e-04
    72   -2.086330309247e-05
    73    1.707272843245e-04
    74   -1.945730693615e-04
    75   -1.577256820045e-16
    76   -1.173434148311e-04
    77   -7.032911339294e-12
    78   -5.444626937083e-11
    79   -2.716010286033e-10
    80   -9.324497283871e-10
    81   -2.202792866274e-09
    82   -7.992495456585e-10
    83   -2.947189040498e-09
    84    1.356092902352e-04
    85    4.603481379837e-16
    86   -2.153126175341e-12
    87   -3.802872777400e-11
    88    7.395749299535e-04
    89   -4.765893919998e-16
    90   -2.304272887012e-11
    91    2.750945452203e-12
    92   -3.881402938730e-04
    93   -6.388481089569e-16
    94   -1.237312706094e-11
    95   -3.388493763975e-10
    96    3.500175553660e-04
    97    1.545937258563e-14
    98   -1.703602919905e-10
    99   -1.572266228609e-11
   100   -1.250485705250e-04
   101   -1.351989731948e-13
   102   -1.384832342395e-12
   103    7.126679735355e-12
   104    4.223107515224e-04
   105    2.506785238430e-16
   106   -6.742834870382e-12
   107    6.438612137677e-16
   108   -4.325952846913e-12
   109   -1.158664456173e-11
   110   -1.854752712290e-11
   111   -9.471852781734e-11
   112    6.671920380489e-05
   113    5.147568688069e-16
   114   -7.218799168926e-12
   115    7.808485232741e-04
   116    6.045055509414e-03
   117    3.015512602019e-02
   118    1.035336767218e-01
   119    2.445793046903e-01
   120    8.934675121419e-02
   121    3.274586326245e-01
   122    2.451987496018e-05
   123   -2.431054335074e-15
   124    3.457917095286e-06
   125    9.683741130978e-04
   126   -4.442090628776e-05
   127    1.355844191350e-15
   128    4.776142458124e-05
   129    9.045494458180e-04
   130   -2.408899008579e-04
   131   -5.498292077978e-16
   132    6.812844551824e-05
   133   -1.216356591075e-03
   134    2.580388548507e-04
   135   -8.629769730624e-15
   136   -1.354536589983e-04
   137   -7.995476725719e-05
   138    1.230856867764e-04
   139    1.079973601300e-13
   140   -4.404878049459e-05
   141    1.040143731886e-04
   142    2.464575913131e-05
   143   -1.069595888143e-15
   144    7.946973073038e-05
   145   -3.525110042816e-16
   146    3.243729769862e-04
   147    4.233519328426e-04
   148    2.086334403112e-05
   149   -1.707272080982e-04
   150   -1.945730478831e-04
   151    4.992829848059e-16
   152    1.173434009496e-04
   153   -7.465826885998e-05
   154   -5.780599095964e-04
   155   -2.883097217156e-03
   156   -9.901232010821e-03
   157   -2.337130557583e-02
   158   -8.537435558447e-03
   159   -3.138796672965e-02
   160   -2.658206929831e-06
   161    9.731351906076e-17
   162   -7.111509673407e-05
   163    1.652894225744e-04
   164    6.908603038160e-05
   165    2.942707876319e-16
   166   -3.897619046496e-04
   167   -1.278998945587e-04
   168   -4.260659808397e-05
   169    1.108427176519e-15
   170    2.744810521462e-04
   171    9.179851583841e-04
   172   -8.199906321552e-06
   173    9.286083140324e-16
   174   -1.960098207098e-04
   175    3.473777942060e-05
   176   -6.292830062384e-05
   177   -4.446736890995e-14
   178    4.658143951058e-05
   179    2.079588833891e-04
   180    3.256145854741e-05
   181   -2.598038333730e-16
   182   -1.140475666077e-04
   183   -8.079701167384e-16
   184   -3.816914690236e-05
   185   -5.442670664768e-05
   186   -1.049288434302e-04
   187   -5.930204769009e-05
   188    6.378711597900e-07
   189   -5.078316695063e-16
   190   -3.844046310991e-05
   191    8.509066735502e-13
   192    6.588280616170e-12
   193    3.287876738013e-11
   194    1.128847250032e-10
   195    2.672210851885e-10
   196    1.070745314709e-10
   197    3.585845261492e-10
   198   -2.520726464612e-05
   199    3.538182472159e-16
   200    4.891131478627e-12
   201   -4.427414425666e-11
   202    1.688253328663e-04
   203    2.907732360402e-16
   204    1.865124053488e-11
   205    4.452690194235e-11
   206   -1.861247846501e-04
   207    2.431651055180e-16
   208   -3.264835155868e-11
   209   -2.492314059523e-10
   210   -1.056482368507e-04
   211    4.522739027430e-15
   212    2.262005894022e-10
   213   -3.126711371864e-12
   214    7.494916815823e-05
   215   -1.787307647500e-14
   216   -1.458886539963e-11
   217    6.843742295660e-12
   218   -8.182329914759e-05
   219   -4.288911645268e-16
   220   -7.478496415771e-12
   221   -3.729610481892e-16
   222   -5.836277776264e-14
   223   -4.606439835225e-14
   224   -6.840159376042e-13
   225    2.167541816122e-12
   226   -4.205617188745e-12
   227    1.480496373358e-11
   228    4.407388490699e-05
   229   -6.911819076723e-15
   230   -3.655407380512e-14
   231    1.199775038020e-05
   232   -1.858202364938e-15
   233   -1.735668269087e-13
   234   -2.289614343279e-05
   235   -7.170831342304e-16
   236   -4.972301711693e-13
   237   -5.052428468344e-05
   238    3.765612372197e-16
   239    1.759892975805e-12
   240   -1.088430813429e-04
   241    6.755803318905e-16
   242   -9.850595869595e-12
   243   -1.360446089924e-10
   244    6.477648113254e-05
   245   -4.392548469513e-15
   246    3.172114528155e-11
   247   -7.319349411547e-11
   248   -3.554601460814e-05
   249    2.947755872637e-14
   250    1.896546094955e-11
   251   -1.469147442970e-12
   252   -3.117321017868e-06
   253    2.409141254172e-16
   254    3.649542621269e-13
   255   -2.667013320570e-16
Sym=X
Ene= -0.004638
Spin=Alpha
Occup=1
     1    1.554100229945e-05
     2    2.883949068336e-05
     3    3.299705134986e-04
     4    9.580028695418e-05
     5   -1.426625314477e-05
     6   -3.588937420148e-16
     7    4.970876327506e-05
     8    8.080075320222e-05
     9    6.255443835571e-04
    10    3.120457788287e-03
    11    1.071429039132e-02
    12    2.531068263963e-02
    13    9.325468056047e-03
    14    3.391549367125e-02
    15    5.673593785958e-06
    16   -3.125979857659e-16
    17    7.185325959103e-05
    18   -3.493141757136e-04
    19   -1.514188246397e-05
    20    8.819028151313e-16
    21    4.592102455238e-04
    22    1.242057881090e-03
    23    4.690047130430e-04
    24   -5.543810091137e-15
    25   -5.267377864383e-04
    26    5.735488626080e-04
    27    2.571880820168e-04
    28    3.032358113020e-14
    29   -3.083397382664e-04
    30    1.060786695012e-04
    31    2.781152710193e-05
    32   -8.235113350325e-14
    33    3.743900665559e-04
    34   -2.328528904183e-04
    35   -3.204864853822e-06
    36    4.023662617072e-16
    37    1.298206800257e-04
    38   -1.528430872183e-16
    39   -7.715729251557e-04
    40   -5.973289368505e-03
    41   -2.979679527115e-02
    42   -1.023045328564e-01
    43   -2.416636700148e-01
    44   -8.821314158123e-02
    45   -3.235877253964e-01
    46    5.263936579178e-05
    47    3.005302041701e-16
    48   -1.750730383676e-05
    49   -1.198857471687e-03
    50   -3.486290121970e-04
    51   -9.272898806753e-16
    52    7.769114443767e-05
    53   -1.560400384063e-03
    54   -5.124629708617e-04
    55    2.988567119430e-15
    56   -5.237753421108e-04
    57    4.646661700105e-04
    58    3.528481915533e-04
    59   -2.508597905872e-14
    60    9.971103167997e-05
    61    2.744114143148e-05
    62    9.843744283087e-06
    63    9.600167497159e-14
    64   -1.092352750899e-04
    65    5.603743012096e-06
    66    1.363713794758e-04
    67   -1.976878321740e-16
    68   -1.464034959361e-04
    69    4.940128937725e-16
    70   -3.016634336809e-04
    71   -4.921049163559e-04
    72    1.428899735896e-06
    73    2.601256736603e-04
    74   -2.402369456337e-04
    75   -5.768412161248e-16
    76   -1.125108266129e-04
    77   -1.534953830076e-04
    78   -1.188202442047e-03
    79   -5.927817134754e-03
    80   -2.034904229395e-02
    81   -4.809150488478e-02
    82   -1.751116424982e-02
    83   -6.426259697157e-02
    84   -3.664247601356e-12
    85   -4.156364061336e-16
    86   -9.870700509750e-05
    87   -7.596527944559e-04
    88   -4.016872818444e-11
    89    6.807994006437e-17
    90   -3.958026708332e-04
    91    1.030384225199e-03
    92    2.605462340268e-11
    93   -4.277271859713e-15
    94    7.563114378442e-04
    95   -1.601414620716e-03
    96   -6.421464306150e-11
    97    1.973504692273e-14
    98   -1.380621475624e-04
    99   -1.465839817416e-04
   100    8.185411906940e-12
   101   -8.911044943511e-14
   102    5.726968837164e-05
   103    1.709607672159e-04
   104   -2.332926323421e-11
   105   -2.063140293624e-16
   106   -1.511488598243e-04
   107    1.937667633502e-18
   108   -1.232730719493e-04
   109   -1.647603984869e-04
   110    3.673457897511e-04
   111    7.019772736660e-05
   112   -3.632828479386e-12
   113   -4.451005264189e-16
   114   -1.356596682815e-04
   115   -7.715729842879e-04
   116   -5.973289826278e-03
   117   -2.979679755476e-02
   118   -1.023045406966e-01
   119   -2.416636885382e-01
   120   -8.821314834947e-02
   121   -3.235877501843e-01
   122   -5.263936769189e-05
   123    2.373626989639e-15
   124   -1.750731399742e-05
   125   -1.198857574036e-03
   126    3.486290058040e-04
   127   -2.523182736749e-15
   128    7.769109581477e-05
   129   -1.560400447145e-03
   130    5.124629908834e-04
   131    2.990488107980e-15
   132   -5.237753282228e-04
   133    4.646662182005e-04
   134   -3.528482293397e-04
   135   -2.078051424820e-14
   136    9.971094052963e-05
   137    2.744114506605e-05
   138   -9.843760189806e-06
   139    8.868589907771e-14
   140   -1.092352658935e-04
   141    5.603711335220e-06
   142   -1.363713781944e-04
   143    3.648703633752e-16
   144   -1.464034897374e-04
   145   -3.169009348146e-16
   146   -3.016634563808e-04
   147   -4.921049430756e-04
   148    1.428903500513e-06
   149    2.601256689637e-04
   150    2.402369626872e-04
   151   -3.097612424280e-18
   152   -1.125108412203e-04
   153    8.080066834401e-05
   154    6.255437266191e-04
   155    3.120454511192e-03
   156    1.071427914003e-02
   157    2.531065605875e-02
   158    9.325458342101e-03
   159    3.391545809443e-02
   160   -5.673583608152e-06
   161   -6.325353182250e-16
   162    7.185325740685e-05
   163   -3.493143108651e-04
   164    1.514186498592e-05
   165    1.778948842137e-15
   166    4.592102958021e-04
   167    1.242057774888e-03
   168   -4.690046636924e-04
   169   -4.470339565828e-15
   170   -5.267378133586e-04
   171    5.735489125310e-04
   172   -2.571880799858e-04
   173    2.584246049173e-14
   174   -3.083397975643e-04
   175    1.060786711630e-04
   176   -2.781151930174e-05
   177   -7.694048614432e-14
   178    3.743900499365e-04
   179   -2.328529231620e-04
   180    3.204861283596e-06
   181   -1.620353748041e-16
   182    1.298206832304e-04
   183    1.422196852008e-16
   184    1.554097167240e-05
   185    2.883945673043e-05
   186    3.299705193573e-04
   187    9.580031311594e-05
   188    1.426627441848e-05
   189    4.418003067371e-17
   190    4.970878082517e-05
   191   -5.612143436290e-05
   192   -4.345752031157e-04
   193   -2.167109860837e-03
   194   -7.443386673706e-03
   195   -1.755676472091e-02
   196   -6.300498915327e-03
   197   -2.360848346282e-02
   198   -6.097467185559e-12
   199   -3.017111739646e-17
   200   -1.099438233012e-04
   201   -2.705444018380e-04
   202   -5.811579238108e-11
   203   -7.426374720207e-17
   204    1.021585160044e-04
   205   -7.606022340513e-04
   206    4.540368386611e-11
   207    4.197121098730e-15
   208    3.034814003247e-04
   209   -8.721799572476e-04
   210    2.673476031216e-11
   211   -2.729813638961e-14
   212    1.451963480964e-03
   213   -4.817625509282e-05
   214   -5.100109130133e-12
   215    4.707146641553e-14
   216   -7.501518724255e-04
   217   -1.744819986177e-05
   218    2.878354247637e-11
   219   -1.859218109461e-16
   220   -8.194292489265e-06
   221   -4.606786249286e-16
   222    2.079188151875e-06
   223    6.776883002523e-06
   224   -1.810308439437e-05
   225    9.844956562038e-06
   226   -4.492708338596e-05
   227    3.918971704220e-05
   228   -1.076982604948e-12
   229    8.232789653822e-16
   230    4.932509014098e-06
   231   -6.126464984607e-13
   232   -2.885841777798e-16
   233    6.956693098943e-07
   234    2.241481986708e-12
   235    1.297867670077e-15
   236   -1.867593823574e-05
   237   -4.001319103281e-12
   238   -1.612015133922e-15
   239    2.486674284071e-05
   240    1.200008927154e-13
   241    6.308186940870e-15
   242   -7.960962688016e-05
   243   -9.709302798900e-04
   244   -1.599421057701e-12
   245   -4.769839517866e-15
   246    2.182307369817e-04
   247   -1.025369761174e-04
   248    3.357742525039e-12
   249    1.905047972287e-14
   250    1.789412592923e-04
   251   -3.537118938881e-05
   252    1.761305421524e-12
   253    1.303063784509e-16
   254    6.393949753483e-06
   255   -1.371889602740e-16
Sym=X
Ene= -0.258743
Spin=Alpha
Occup=1
     1   -2.775577607462e-04
     2   -3.002933248383e-04
     3   -7.322139860589e-05
     4   -2.324845823301e-05
     5   -1.852993914493e-04
     6   -3.483583531215e-17
     7    1.316163957832e-04
     8   -7.807879024900e-04
     9   -6.044570292266e-03
    10   -3.015276465400e-02
    11   -1.035252901025e-01
    12   -2.445649488465e-01
    13   -8.937595475716e-02
    14   -3.273897696530e-01
    15   -8.860176777102e-05
    16   -1.648732539760e-15
    17   -6.853846870433e-05
    18   -1.110120627829e-03
    19    1.124786580038e-04
    20    1.884310188934e-15
    21    2.014846170024e-04
    22   -1.038759027081e-03
    23   -4.634765828757e-04
    24   -2.135711048912e-15
    25   -6.220181219100e-05
    26    8.869702273803e-04
    27    1.019706797550e-05
    28    1.339034273357e-14
    29    1.226824829567e-04
    30    1.281844936205e-05
    31   -2.311093677746e-05
    32   -1.648900291348e-14
    33   -8.788057441241e-05
    34   -1.664524341205e-04
    35    1.349813270285e-05
    36    1.820914940446e-16
    37   -3.612563342051e-05
    38    3.850866857672e-16
    39   -7.439250564316e-05
    40   -5.758313092213e-04
    41   -2.873034047594e-03
    42   -9.861467590774e-03
    43   -2.331603610883e-02
    44   -8.527118466681e-03
    45   -3.111906130834e-02
    46   -6.373494911884e-06
    47   -4.883787110400e-16
    48   -8.906164213112e-05
    49   -2.847752745414e-04
    50    6.023273083492e-05
    51   -5.478991546238e-16
    52   -4.027582083019e-04
    53   -1.163448289823e-06
    54    3.338433058481e-05
    55    9.982823990681e-16
    56    1.979597739886e-04
    57    4.226483212593e-04
    58    2.939564395670e-04
    59   -1.330768218527e-14
    60   -2.422966138199e-04
    61    4.027136735812e-05
    62    5.760183896783e-05
    63    2.718892491616e-14
    64    7.392561394519e-05
    65   -2.176595121788e-04
    66   -2.641220146726e-05
    67   -2.020271410221e-17
    68    9.899001057783e-05
    69    2.150019190096e-16
    70   -4.419903261826e-05
    71   -6.303793439130e-05
    72    9.962858947681e-05
    73    1.213985153227e-04
    74   -3.785618912837e-05
    75   -1.782892088237e-16
    76   -5.921391752472e-05
    77   -1.233896586583e-11
    78   -9.552244247229e-11
    79   -4.765088505436e-10
    80   -1.635938736358e-09
    81   -3.864676469918e-09
    82   -1.401840721085e-09
    83   -5.170487365528e-09
    84   -1.796482354542e-05
    85    1.239241236685e-16
    86   -3.181872858510e-12
    87   -6.826809591592e-11
    88    2.728605133821e-04
    89    8.010778118742e-16
    90   -4.269605986692e-11
    91   -3.536879278087e-11
    92   -2.156158734774e-04
    93   -3.559923166253e-16
    94   -1.797115482232e-11
    95   -4.496813998873e-10
    96    4.249279385785e-04
    97    8.929761614070e-15
    98   -8.822097401914e-11
    99   -2.347042244685e-11
   100   -5.013441900358e-05
   101   -9.537945791191e-16
   102    1.477581131820e-12
   103    1.275783850208e-11
   104    1.655229153633e-04
   105    9.442968895967e-17
   106   -1.199287382821e-11
   107   -1.060029688703e-16
   108   -7.753392932467e-12
   109   -2.411329290466e-11
   110    1.553899101953e-11
   111   -2.286080332964e-11
   112    2.748556218791e-05
   113    2.239605726192e-17
   114   -1.323412001817e-11
   115    7.439240120065e-05
   116    5.758305006608e-04
   117    2.873030014198e-03
   118    9.861453742668e-03
   119    2.331600339627e-02
   120    8.527106538299e-03
   121    3.111901751420e-02
   122   -6.373502779450e-06
   123   -1.119065461059e-15
   124    8.906162508788e-05
   125    2.847750258186e-04
   126    6.023277746342e-05
   127   -9.557154002885e-16
   128    4.027581367372e-04
   129    1.163530801466e-06
   130    3.338426182164e-05
   131   -1.691541916889e-15
   132   -1.979597233207e-04
   133   -4.226481824683e-04
   134    2.939561951616e-04
   135   -5.359733371717e-15
   136    2.422965969765e-04
   137   -4.027134066760e-05
   138    5.760183712402e-05
   139   -2.345096866955e-14
   140   -7.392563009418e-05
   141    2.176594691551e-04
   142   -2.641222210059e-05
   143   -2.036982268113e-16
   144   -9.899000758501e-05
   145    3.534283760930e-17
   146    4.419898799843e-05
   147    6.303787539179e-05
   148   -9.962850336650e-05
   149   -1.213983922623e-04
   150   -3.785615019879e-05
   151   -1.020061522708e-16
   152    5.921389163565e-05
   153    7.807877569807e-04
   154    6.044569165783e-03
   155    3.015275903473e-02
   156    1.035252708093e-01
   157    2.445649032725e-01
   158    8.937593812783e-02
   159    3.273897086336e-01
   160   -8.860176028584e-05
   161    5.557086309763e-16
   162    6.853846703654e-05
   163    1.110120335786e-03
   164    1.124786931553e-04
   165   -1.168047865090e-15
   166   -2.014845378264e-04
   167    1.038758827356e-03
   168   -4.634764865351e-04
   169    1.845405961370e-15
   170    6.220185448604e-05
   171   -8.869698166856e-04
   172    1.019700302400e-05
   173    2.480584625465e-15
   174   -1.226826846388e-04
   175   -1.281839549065e-05
   176   -2.311095770192e-05
   177    3.548983848046e-14
   178    8.788066113951e-05
   179    1.664523905921e-04
   180    1.349814534927e-05
   181    4.688173955539e-16
   182    3.612563120809e-05
   183   -1.185568051952e-15
   184    2.775577055755e-04
   185    3.002932293778e-04
   186    7.322142685722e-05
   187    2.324853127918e-05
   188   -1.852993443474e-04
   189   -2.413775797867e-16
   190   -1.316163638209e-04
   191    1.671891377013e-12
   192    1.293808226586e-11
   193    6.456688990768e-11
   194    2.216926759346e-10
   195    5.247140147675e-10
   196    2.099191023321e-10
   197    7.042063378054e-10
   198    1.295386922243e-04
   199    2.349437647831e-16
   200    9.527083250111e-12
   201   -8.613407256547e-11
   202    9.317415210770e-04
   203    2.500277841807e-15
   204    3.572590220880e-11
   205    1.257369478945e-10