[Molden Format]
[Atoms] (Angs)
  H      1    1     -2.14003202      0.00000000      0.38146042
  C      2    6     -1.21205832      0.00000000     -0.17180643
  C      3    6     -1.20429565      0.00000000     -1.56369320
  H      4    1     -2.14371879      0.00000000     -2.09923439
  C      5    6     -0.00000000      0.00000000     -2.26269040
  H      6    1     -0.00000000      0.00000000     -3.34354440
  C      7    6      1.20429565      0.00000000     -1.56369320
  H      8    1      2.14371879      0.00000000     -2.09923439
  C      9    6      1.21205832     -0.00000000     -0.17180643
  H     10    1      2.14003202     -0.00000000      0.38146042
  C     11    6      0.00000000     -0.00000000      0.51110416
 Cl     12   17      0.00000000     -0.00000000      2.24203561
[GTO]
1    0
S    3    1.000000
   3.38650000E+01    2.54938000E-02 
   5.09479000E+00    1.90373000E-01 
   1.15879000E+00    8.52161000E-01 
S    1    1.000000
   3.25840000E-01    1.00000000E+00 
S    1    1.000000
   1.02741000E-01    1.00000000E+00 
S    1    1.000000
   3.60000000E-02    1.00000000E+00 
P    1    1.000000
   7.50000000E-01    1.00000000E+00 

2    0
S    1    1.000000
   4.56324000E+03    1.96665000E-03 
S    1    1.000000
   6.82024000E+02    1.52306000E-02 
S    1    1.000000
   1.54973000E+02    7.61269000E-02 
S    1    1.000000
   4.44553000E+01    2.60801000E-01 
S    1    1.000000
   1.30290000E+01    6.16462000E-01 
S    1    1.000000
   1.82773000E+00    2.21006000E-01 
SP   3    1.000000
   2.09642000E+01    1.14660000E-01   4.02487000E-02 
   4.80331000E+00    9.19999000E-01   2.37594000E-01 
   1.45933000E+00   -3.03068000E-03   8.15854000E-01 
SP   1    1.000000
   4.83456000E-01    1.00000000E+00   1.00000000E+00 
SP   1    1.000000
   1.45585000E-01    1.00000000E+00   1.00000000E+00 
SP   1    1.000000
   4.38000000E-02    1.00000000E+00   1.00000000E+00 
SP   1    1.000000
   1.31927711E-02    1.00000000E+00   1.00000000E+00 
D    1    1.000000
   6.26000000E-01    1.00000000E+00 

3    0
S    1    1.000000
   4.56324000E+03    1.96665000E-03 
S    1    1.000000
   6.82024000E+02    1.52306000E-02 
S    1    1.000000
   1.54973000E+02    7.61269000E-02 
S    1    1.000000
   4.44553000E+01    2.60801000E-01 
S    1    1.000000
   1.30290000E+01    6.16462000E-01 
S    1    1.000000
   1.82773000E+00    2.21006000E-01 
SP   3    1.000000
   2.09642000E+01    1.14660000E-01   4.02487000E-02 
   4.80331000E+00    9.19999000E-01   2.37594000E-01 
   1.45933000E+00   -3.03068000E-03   8.15854000E-01 
SP   1    1.000000
   4.83456000E-01    1.00000000E+00   1.00000000E+00 
SP   1    1.000000
   1.45585000E-01    1.00000000E+00   1.00000000E+00 
SP   1    1.000000
   4.38000000E-02    1.00000000E+00   1.00000000E+00 
SP   1    1.000000
   1.31927711E-02    1.00000000E+00   1.00000000E+00 
D    1    1.000000
   6.26000000E-01    1.00000000E+00 

4    0
S    3    1.000000
   3.38650000E+01    2.54938000E-02 
   5.09479000E+00    1.90373000E-01 
   1.15879000E+00    8.52161000E-01 
S    1    1.000000
   3.25840000E-01    1.00000000E+00 
S    1    1.000000
   1.02741000E-01    1.00000000E+00 
S    1    1.000000
   3.60000000E-02    1.00000000E+00 
P    1    1.000000
   7.50000000E-01    1.00000000E+00 

5    0
S    1    1.000000
   4.56324000E+03    1.96665000E-03 
S    1    1.000000
   6.82024000E+02    1.52306000E-02 
S    1    1.000000
   1.54973000E+02    7.61269000E-02 
S    1    1.000000
   4.44553000E+01    2.60801000E-01 
S    1    1.000000
   1.30290000E+01    6.16462000E-01 
S    1    1.000000
   1.82773000E+00    2.21006000E-01 
SP   3    1.000000
   2.09642000E+01    1.14660000E-01   4.02487000E-02 
   4.80331000E+00    9.19999000E-01   2.37594000E-01 
   1.45933000E+00   -3.03068000E-03   8.15854000E-01 
SP   1    1.000000
   4.83456000E-01    1.00000000E+00   1.00000000E+00 
SP   1    1.000000
   1.45585000E-01    1.00000000E+00   1.00000000E+00 
SP   1    1.000000
   4.38000000E-02    1.00000000E+00   1.00000000E+00 
SP   1    1.000000
   1.31927711E-02    1.00000000E+00   1.00000000E+00 
D    1    1.000000
   6.26000000E-01    1.00000000E+00 

6    0
S    3    1.000000
   3.38650000E+01    2.54938000E-02 
   5.09479000E+00    1.90373000E-01 
   1.15879000E+00    8.52161000E-01 
S    1    1.000000
   3.25840000E-01    1.00000000E+00 
S    1    1.000000
   1.02741000E-01    1.00000000E+00 
S    1    1.000000
   3.60000000E-02    1.00000000E+00 
P    1    1.000000
   7.50000000E-01    1.00000000E+00 

7    0
S    1    1.000000
   4.56324000E+03    1.96665000E-03 
S    1    1.000000
   6.82024000E+02    1.52306000E-02 
S    1    1.000000
   1.54973000E+02    7.61269000E-02 
S    1    1.000000
   4.44553000E+01    2.60801000E-01 
S    1    1.000000
   1.30290000E+01    6.16462000E-01 
S    1    1.000000
   1.82773000E+00    2.21006000E-01 
SP   3    1.000000
   2.09642000E+01    1.14660000E-01   4.02487000E-02 
   4.80331000E+00    9.19999000E-01   2.37594000E-01 
   1.45933000E+00   -3.03068000E-03   8.15854000E-01 
SP   1    1.000000
   4.83456000E-01    1.00000000E+00   1.00000000E+00 
SP   1    1.000000
   1.45585000E-01    1.00000000E+00   1.00000000E+00 
SP   1    1.000000
   4.38000000E-02    1.00000000E+00   1.00000000E+00 
SP   1    1.000000
   1.31927711E-02    1.00000000E+00   1.00000000E+00 
D    1    1.000000
   6.26000000E-01    1.00000000E+00 

8    0
S    3    1.000000
   3.38650000E+01    2.54938000E-02 
   5.09479000E+00    1.90373000E-01 
   1.15879000E+00    8.52161000E-01 
S    1    1.000000
   3.25840000E-01    1.00000000E+00 
S    1    1.000000
   1.02741000E-01    1.00000000E+00 
S    1    1.000000
   3.60000000E-02    1.00000000E+00 
P    1    1.000000
   7.50000000E-01    1.00000000E+00 

9    0
S    1    1.000000
   4.56324000E+03    1.96665000E-03 
S    1    1.000000
   6.82024000E+02    1.52306000E-02 
S    1    1.000000
   1.54973000E+02    7.61269000E-02 
S    1    1.000000
   4.44553000E+01    2.60801000E-01 
S    1    1.000000
   1.30290000E+01    6.16462000E-01 
S    1    1.000000
   1.82773000E+00    2.21006000E-01 
SP   3    1.000000
   2.09642000E+01    1.14660000E-01   4.02487000E-02 
   4.80331000E+00    9.19999000E-01   2.37594000E-01 
   1.45933000E+00   -3.03068000E-03   8.15854000E-01 
SP   1    1.000000
   4.83456000E-01    1.00000000E+00   1.00000000E+00 
SP   1    1.000000
   1.45585000E-01    1.00000000E+00   1.00000000E+00 
SP   1    1.000000
   4.38000000E-02    1.00000000E+00   1.00000000E+00 
SP   1    1.000000
   1.31927711E-02    1.00000000E+00   1.00000000E+00 
D    1    1.000000
   6.26000000E-01    1.00000000E+00 

10    0
S    3    1.000000
   3.38650000E+01    2.54938000E-02 
   5.09479000E+00    1.90373000E-01 
   1.15879000E+00    8.52161000E-01 
S    1    1.000000
   3.25840000E-01    1.00000000E+00 
S    1    1.000000
   1.02741000E-01    1.00000000E+00 
S    1    1.000000
   3.60000000E-02    1.00000000E+00 
P    1    1.000000
   7.50000000E-01    1.00000000E+00 

11    0
S    1    1.000000
   4.56324000E+03    1.96665000E-03 
S    1    1.000000
   6.82024000E+02    1.52306000E-02 
S    1    1.000000
   1.54973000E+02    7.61269000E-02 
S    1    1.000000
   4.44553000E+01    2.60801000E-01 
S    1    1.000000
   1.30290000E+01    6.16462000E-01 
S    1    1.000000
   1.82773000E+00    2.21006000E-01 
SP   3    1.000000
   2.09642000E+01    1.14660000E-01   4.02487000E-02 
   4.80331000E+00    9.19999000E-01   2.37594000E-01 
   1.45933000E+00   -3.03068000E-03   8.15854000E-01 
SP   1    1.000000
   4.83456000E-01    1.00000000E+00   1.00000000E+00 
SP   1    1.000000
   1.45585000E-01    1.00000000E+00   1.00000000E+00 
SP   1    1.000000
   4.38000000E-02    1.00000000E+00   1.00000000E+00 
SP   1    1.000000
   1.31927711E-02    1.00000000E+00   1.00000000E+00 
D    1    1.000000
   6.26000000E-01    1.00000000E+00 

12    0
S    6    1.000000
   1.05819000E+05    7.38000000E-04 
   1.58720000E+04    5.71800000E-03 
   3.61965000E+03    2.94950000E-02 
   1.03080000E+03    1.17286000E-01 
   3.39908000E+02    3.62949000E-01 
   1.24538000E+02    5.84149000E-01 
S    3    1.000000
   1.24538000E+02    1.34177000E-01 
   4.95135000E+01    6.24250000E-01 
   2.08056000E+01    2.91756000E-01 
S    1    1.000000
   6.58346000E+00    1.00000000E+00 
S    1    1.000000
   2.56468000E+00    1.00000000E+00 
S    1    1.000000
   5.59763000E-01    1.00000000E+00 
S    1    1.000000
   1.83273000E-01    1.00000000E+00 
P    5    1.000000
   5.89776000E+02    2.39100000E-03 
   1.39849000E+02    1.85040000E-02 
   4.51413000E+01    8.13770000E-02 
   1.68733000E+01    2.21552000E-01 
   6.74110000E+00    7.72569000E-01 
P    2    1.000000
   6.74110000E+00   -1.57224400E+00 
   2.77152000E+00    9.92389000E-01 
P    1    1.000000
   1.02387000E+00    1.00000000E+00 
P    1    1.000000
   3.81368000E-01    1.00000000E+00 
P    1    1.000000
   1.09437000E-01    1.00000000E+00 
SP   1    1.000000
   4.83000000E-02    1.00000000E+00   1.00000000E+00 
SP   1    1.000000
   1.45481928E-02    1.00000000E+00   1.00000000E+00 
D    1    1.000000
   7.50000000E-01    1.00000000E+00 

[MO]
Sym=X
Ene= -0.011123
Spin=Alpha
Occup=1
     1   -7.928111121017e-05
     2   -1.275821689348e-04
     3   -3.140773346137e-04
     4   -1.990019015067e-05
     5   -5.690761099072e-05
     6    3.551764405152e-16
     7   -1.011214358463e-05
     8   -2.985910895238e-04
     9   -2.311610123525e-03
    10   -1.153112144145e-02
    11   -3.959149587515e-02
    12   -9.352547969434e-02
    13   -3.423031919663e-02
    14   -1.252395588860e-01
    15   -1.682432850208e-05
    16   -9.144292724227e-17
    17   -9.174320033274e-05
    18   -7.570285968199e-05
    19   -4.423449105462e-05
    20   -3.052179039638e-16
    21   -4.404355112873e-04
    22   -1.605347588733e-03
    23   -6.357201229213e-04
    24    4.838620322262e-15
    25    6.717306289501e-04
    26   -2.550973232927e-05
    27   -2.681144618103e-04
    28   -2.092962351335e-14
    29   -1.204528054899e-05
    30   -2.714915441781e-05
    31    1.444537451063e-05
    32   -9.234572786377e-14
    33   -2.405140858815e-04
    34    2.065548478224e-04
    35   -3.291757692698e-05
    36   -4.349259342833e-16
    37   -1.517425182997e-04
    38    2.045767726085e-16
    39    7.163773827024e-04
    40    5.545984067707e-03
    41    2.766524621268e-02
    42    9.498620342952e-02
    43    2.243772165334e-01
    44    8.192666003691e-02
    45    3.004395485077e-01
    46   -5.753178997262e-05
    47   -1.747190118667e-16
    48   -2.075686293734e-05
    49    1.047644061607e-03
    50    3.088888401124e-04
    51    1.003358799574e-15
    52   -2.396018927367e-04
    53    1.807050686024e-03
    54    6.451027344029e-04
    55   -1.906305812710e-15
    56    6.602498697596e-04
    57   -4.565594299953e-04
    58   -8.092723166202e-06
    59    1.947016698952e-14
    60   -2.060925621538e-04
    61    5.002462074346e-06
    62   -2.191727071123e-05
    63    4.782632737077e-14
    64    8.281469392036e-05
    65   -7.496025441324e-05
    66   -1.349759618195e-04
    67    1.633230329373e-16
    68    1.724582578765e-04
    69   -3.240240404106e-16
    70    2.508195504462e-04
    71    4.005477460424e-04
    72    1.067173962402e-04
    73   -1.108997389159e-04
    74    2.164213570774e-04
    75    7.702718876364e-16
    76    8.828765538539e-05
    77    1.608164697282e-04
    78    1.244871388278e-03
    79    6.210569684235e-03
    80    2.131965888450e-02
    81    5.038763116446e-02
    82    1.837559363456e-02
    83    6.732553967350e-02
    84    1.936763683248e-12
    85    4.136034346764e-16
    86    9.059896273797e-05
    87    7.118729189100e-04
    88    2.002499715607e-11
    89    3.205429104205e-16
    90    3.001657018652e-04
    91   -1.163122529252e-03
    92   -1.245648901967e-11
    93    4.470747173435e-15
    94   -8.261634760349e-04
    95    3.987321162027e-04
    96    2.615571551780e-11
    97   -1.470897920610e-14
    98   -7.563526690861e-05
    99    8.884085372058e-05
   100   -3.837843974682e-12
   101   -5.078913099539e-14
   102   -5.526282591036e-05
   103   -1.594020597486e-04
   104    1.163578793951e-11
   105    2.501386220213e-16
   106    1.439262339465e-04
   107    3.709121233844e-17
   108    1.002659928268e-04
   109    7.927725682832e-05
   110   -3.674029362173e-04
   111   -1.375346368239e-04
   112    1.811155582478e-12
   113    3.950294194924e-16
   114    1.249213061834e-04
   115    7.163774129018e-04
   116    5.545984301497e-03
   117    2.766524737894e-02
   118    9.498620743358e-02
   119    2.243772259934e-01
   120    8.192666349345e-02
   121    3.004395611674e-01
   122    5.753179101060e-05
   123   -1.917236088660e-15
   124   -2.075685815805e-05
   125    1.047644113041e-03
   126   -3.088888371464e-04
   127    2.372988148732e-15
   128   -2.396018696257e-04
   129    1.807050717688e-03
   130   -6.451027440364e-04
   131   -1.417970005197e-15
   132    6.602498629213e-04
   133   -4.565594821207e-04
   134    8.092749605228e-06
   135    1.421299224895e-14
   136   -2.060925354214e-04
   137    5.002458222914e-06
   138    2.191727885730e-05
   139    6.084015313027e-14
   140    8.281468915066e-05
   141   -7.496023914323e-05
   142    1.349759612843e-04
   143   -4.382739878084e-16
   144    1.724582551738e-04
   145    1.838553327702e-16
   146    2.508195619581e-04
   147    4.005477596767e-04
   148    1.067173922276e-04
   149   -1.108997468140e-04
   150   -2.164213657079e-04
   151    1.384672902616e-16
   152    8.828766263783e-05
   153   -2.985910496520e-04
   154   -2.311609814853e-03
   155   -1.153111990166e-02
   156   -3.959149058858e-02
   157   -9.352546720493e-02
   158   -3.423031463239e-02
   159   -1.252395421700e-01
   160    1.682432363693e-05
   161    3.194894252285e-16
   162   -9.174319959274e-05
   163   -7.570279554392e-05
   164    4.423449942318e-05
   165   -1.115335061087e-15
   166   -4.404355362723e-04
   167   -1.605347538957e-03
   168    6.357200991271e-04
   169    3.269452876576e-15
   170    6.717306415545e-04
   171   -2.550973684489e-05
   172    2.681144556754e-04
   173   -1.542555489795e-14
   174   -1.204527089038e-05
   175   -2.714915402345e-05
   176   -1.444537878262e-05
   177   -1.035976080841e-13
   178   -2.405140791912e-04
   179    2.065548638803e-04
   180    3.291757871106e-05
   181    1.883798348434e-16
   182   -1.517425201325e-04
   183   -1.918233977584e-16
   184   -7.928109676057e-05
   185   -1.275821528156e-04
   186   -3.140773354890e-04
   187   -1.990019472587e-05
   188    5.690760094733e-05
   189    2.251194374639e-17
   190   -1.011215198501e-05
   191    2.115933552399e-06
   192    1.647690866471e-05
   193    8.157032067244e-05
   194    2.828880627408e-04
   195    6.449356616079e-04
   196    1.920949657322e-04
   197    9.696234882847e-04
   198    2.814059835496e-12
   199    9.902006918692e-18
   200    5.673759003003e-05
   201   -8.558344833440e-05
   202    2.763729805231e-11
   203    2.170509647578e-16
   204   -1.192374997066e-05
   205    1.010926200016e-03
   206   -2.170043323495e-11
   207   -2.524271102627e-15
   208   -5.562800130914e-04
   209    7.581835549018e-04
   210   -5.087165744856e-12
   211    1.558774224994e-14
   212   -8.521273666765e-04
   213    7.702802180104e-05
   214    2.579753434742e-12
   215    1.663065205895e-13
   216    5.459146519194e-04
   217    5.873799689874e-05
   218   -1.372174789238e-11
   219    1.129749450411e-16
   220   -5.084673593172e-05
   221    3.910455123905e-16
   222   -6.733290642395e-07
   223   -2.035392675307e-06
   224    4.725680986575e-06
   225   -4.575763573448e-06
   226    2.078781439826e-05
   227    6.584231613258e-05
   228    5.016005948644e-13
   229   -2.816853746652e-16
   230    3.095596176011e-06
   231    2.857793476548e-13
   232    6.967282251901e-16
   233   -9.043666163890e-07
   234   -1.051199999997e-12
   235   -1.435556398112e-15
   236    6.932063318538e-07
   237    1.906733146986e-12
   238    1.490937089637e-15
   239   -2.903146769711e-05
   240    4.459230791412e-14
   241   -5.215531971183e-15
   242   -2.845169653896e-06
   243    6.585479752894e-04
   244    5.844855049444e-13
   245    4.936817717977e-15
   246   -1.311929129475e-04
   247   -1.403332296875e-04
   248   -1.382199270253e-12
   249   -3.394504950713e-14
   250   -8.595729078143e-05
   251   -3.909051862792e-06
   252   -8.273194628891e-13
   253    5.027899891139e-18
   254   -3.046879797902e-06
   255    4.089929578946e-17
Sym=X
Ene= -0.011277
Spin=Alpha
Occup=1
     1    3.946490577850e-05
     2    2.340596903257e-05
     3    1.166840358238e-04
     4    1.070554118807e-04
     5    1.968984890466e-05
     6    1.501656075737e-16
     7    2.418380513616e-05
     8    1.515928200298e-04
     9    1.173659052808e-03
    10    5.854166387693e-03
    11    2.010203122429e-02
    12    4.747008237532e-02
    13    1.734835419042e-02
    14    6.363690987243e-02
    15    4.744438705634e-06
    16   -1.678421639877e-16
    17    9.794061804835e-05
    18    7.285025465979e-06
    19    5.196723487460e-05
    20    8.150387631595e-16
    21    4.020878579784e-04
    22    2.866807673235e-04
    23    8.096351190361e-05
    24   -3.009888926134e-15
    25   -2.638792891800e-04
    26   -8.624955760510e-04
    27    1.271398278128e-05
    28    5.401001846026e-15
    29   -1.871992965285e-05
    30   -2.574464323325e-05
    31   -7.640424657876e-05
    32   -6.242086303437e-14
    33   -3.243236382762e-05
    34   -1.919128772050e-04
    35    3.098373900476e-05
    36    9.946235678582e-17
    37    1.161075156523e-04
    38    1.868646721335e-16
    39   -7.696197801227e-04
    40   -5.958136774106e-03
    41   -2.972144760733e-02
    42   -1.020450710572e-01
    43   -2.410617243389e-01
    44   -8.806698442587e-02
    45   -3.227417497077e-01
    46    4.127239065420e-05
    47    8.500442264762e-16
    48    1.052407284625e-05
    49   -1.040165477829e-03
    50   -1.574819758612e-05
    51   -1.900179892604e-15
    52    3.873213822952e-06
    53   -9.262617800761e-04
    54   -3.320587640422e-04
    55    3.351784345121e-15
    56   -1.347757917400e-04
    57    8.743207970886e-04
    58    1.514678648050e-04
    59   -1.289348534310e-14
    60   -2.031677440829e-05
    61    5.262204570639e-05
    62    1.273095655802e-04
    63    1.259921713997e-13
    64    2.630632238985e-05
    65   -8.055500878138e-05
    66    2.912276192518e-05
    67   -6.932194895026e-16
    68   -8.861044206647e-05
    69    4.716636400570e-16
    70   -2.659923374226e-04
    71   -2.968735205661e-04
    72   -2.867051187834e-05
    73    8.254503233799e-05
    74   -1.917327979136e-04
    75   -1.120372136887e-16
    76   -1.140742341692e-04
    77   -5.775372932727e-12
    78   -4.471095594019e-11
    79   -2.230369362562e-10
    80   -7.657201608758e-10
    81   -1.808944955499e-09
    82   -6.565475095421e-10
    83   -2.420045444729e-09
    84    1.448791393832e-04
    85    4.835475257162e-16
    86   -1.560992699934e-12
    87   -3.077905349061e-11
    88    7.209369370486e-04
    89   -5.204982742213e-16
    90   -1.867824384550e-11
    91   -1.100773525233e-11
    92   -3.540507340341e-04
    93   -3.542926591097e-16
    94   -4.648889699997e-12
    95   -1.824136309766e-10
    96    4.211537890356e-04
    97    1.381519488942e-14
    98   -3.265334588592e-11
    99   -1.046993386398e-11
   100   -1.308277938378e-04
   101   -1.344060946725e-13
   102    1.228222872290e-12
   103    5.743308375114e-12
   104    4.081565774752e-04
   105    2.020112912896e-16
   106   -5.404308180545e-12
   107    6.596734123160e-16
   108   -3.570642768687e-12
   109   -1.029239143450e-11
   110    8.125117864873e-12
   111   -6.804079279268e-12
   112    6.053561113900e-05
   113    5.462136392984e-16
   114   -5.912429502143e-12
   115    7.696197327152e-04
   116    5.958136407096e-03
   117    2.972144577655e-02
   118    1.020450647714e-01
   119    2.410617094904e-01
   120    8.806697901091e-02
   121    3.227417298291e-01
   122    4.127238709740e-05
   123   -2.276719403465e-15
   124   -1.052407985610e-05
   125    1.040165368343e-03
   126   -1.574817628852e-05
   127    1.473807772163e-15
   128   -3.873242404357e-06
   129    9.262618036222e-04
   130   -3.320587882618e-04
   131   -4.529700453849e-16
   132    1.347758089227e-04
   133   -8.743207448999e-04
   134    1.514677662031e-04
   135   -7.290645540252e-15
   136    2.031676563664e-05
   137   -5.262203638033e-05
   138    1.273095655545e-04
   139    1.095605430465e-13
   140   -2.630633113439e-05
   141    8.055499123350e-05
   142    2.912275247228e-05
   143   -1.052434066393e-15
   144    8.861044236116e-05
   145   -3.126763988805e-16
   146    2.659923174460e-04
   147    2.968734936132e-04
   148    2.867054645775e-05
   149   -8.254498298192e-05
   150   -1.917327804657e-04
   151    5.368718645172e-16
   152    1.140742228771e-04
   153   -1.515928792953e-04
   154   -1.173659511634e-03
   155   -5.854168676436e-03
   156   -2.010203908253e-02
   157   -4.747010093771e-02
   158   -1.734836096299e-02
   159   -6.363693472583e-02
   160    4.744441757008e-06
   161    6.902635411474e-17
   162   -9.794061827526e-05
   163   -7.285147325089e-06
   164    5.196724929065e-05
   165    4.197716461917e-16
   166   -4.020878225203e-04
   167   -2.866808408125e-04
   168    8.096354797033e-05
   169    1.133335854223e-15
   170    2.638793028206e-04
   171    8.624957418567e-04
   172    1.271395861161e-05
   173   -4.711219307723e-17
   174    1.871984728822e-05
   175    2.574466485037e-05
   176   -7.640425519024e-05
   177   -4.746956330894e-14
   178    3.243240433666e-05
   179    1.919128579114e-04
   180    3.098374410640e-05
   181   -3.009074711674e-16
   182   -1.161075157687e-04
   183   -6.186939531664e-16
   184   -3.946492845918e-05
   185   -2.340600801418e-05
   186   -1.166840226783e-04
   187   -1.070553848184e-04
   188    1.968986828389e-05
   189   -4.393323588439e-16
   190   -2.418379172017e-05
   191    6.810342311998e-13
   192    5.273671699567e-12
   193    2.631825481175e-11
   194    9.035886695101e-11
   195    2.139233997254e-10
   196    8.586260953056e-11
   197    2.868964525906e-10
   198   -5.875051655532e-05
   199    3.665750141814e-16
   200    3.814989846021e-12
   201   -3.573457213421e-11
   202    4.207090625231e-05
   203    2.491582737949e-16
   204    1.500186897351e-11
   205    4.894210104356e-11
   206   -1.185738305388e-04
   207   -1.342909782581e-17
   208   -2.848996647710e-11
   209   -5.643455469395e-11
   210   -3.667493800757e-04
   211    5.252934172347e-15
   212    1.232311724697e-10
   213    3.559930706960e-13
   214    7.292483928310e-05
   215   -1.492345983982e-14
   216   -3.542432843372e-11
   217    5.590971872537e-12
   218   -3.438343113937e-05
   219   -2.512323315777e-16
   220   -6.108732679527e-12
   221   -3.216773046002e-16
   222   -4.491694940062e-14
   223   -3.371019557457e-14
   224   -5.410560914669e-13
   225    1.667592956419e-12
   226   -2.959056300500e-12
   227    9.802052036894e-12
   228   -3.580927459655e-07
   229   -5.717361628530e-15
   230    1.159554641931e-13
   231    1.165784464123e-06
   232   -1.454620256672e-15
   233   -1.034074553348e-13
   234   -4.067913126377e-06
   235   -8.724247097778e-16
   236   -5.301006088608e-13
   237    2.084022146492e-05
   238    1.455715907481e-16
   239    1.140944578154e-12
   240   -1.593030688397e-05
   241    5.966812440966e-16
   242   -6.654704558004e-12
   243   -8.278539979278e-11
   244    5.585438868137e-05
   245   -4.240106554435e-15
   246    1.915434874588e-11
   247   -2.748264515075e-11
   248   -1.859274256874e-05
   249    2.824331767159e-14
   250    1.380257926885e-11
   251   -1.131432202878e-12
   252   -2.694460068375e-06
   253   -1.309254324326e-17
   254    1.139161045649e-13
   255   -2.586527266177e-16
Sym=X
Ene= -0.784329
Spin=Alpha
Occup=1
     1    6.477366179622e-06
     2    1.274883375910e-04
     3    9.019663374613e-05
     4   -9.553461967420e-06
     5    1.538822847916e-05
     6   -2.023504351044e-16
     7   -2.314992980765e-05
     8    2.676809868992e-05
     9    2.072722177342e-04
    10    1.033658651425e-03
    11    3.550147892965e-03
    12    8.375221340621e-03
    13    3.020121237064e-03
    14    1.125813050349e-02
    15   -6.424060399331e-06
    16   -1.128098506443e-15
    17    4.198780902949e-05
    18    8.126250715263e-05
    19    4.714513780700e-05
    20    1.769821631193e-15
    21   -1.198714043021e-04
    22    8.660556218035e-04
    23    5.449917508923e-04
    24   -6.846426465724e-15
    25   -1.923010688318e-04
    26   -2.607702305662e-04
    27   -6.662171348503e-06
    28    3.562745830149e-14
    29    1.789571605552e-04
    30   -7.224564187241e-05
    31   -2.159060880785e-05
    32   -1.123956531212e-13
    33   -2.924227491641e-04
    34    4.123981518808e-05
    35   -3.367302297085e-05
    36    5.569087859779e-16
    37   -1.816435753959e-05
    38   -4.051411732521e-16
    39   -1.123686308578e-04
    40   -8.699960215387e-04
    41   -4.339440593309e-03
    42   -1.490138947300e-02
    43   -3.518659663894e-02
    44   -1.289570032221e-02
    45   -4.719937579702e-02
    46    1.174129036551e-04
    47   -8.814740941675e-17
    48   -5.059004214326e-05
    49    2.652876513870e-04
    50    4.765249027739e-04
    51   -1.588110914932e-15
    52   -3.388159491606e-04
    53   -1.333215562133e-03
    54   -8.485636443876e-04
    55    4.599381443817e-15
    56   -1.707696716924e-04
    57   -2.102676476680e-05
    58   -3.246022443041e-04
    59   -2.691070032336e-14
    60   -2.697510281247e-04
    61   -2.910540113916e-05
    62   -6.802423857627e-06
    63    1.085729469914e-13
    64    1.665475637683e-04
    65   -1.528052212468e-04
    66   -2.812345520709e-04
    67    3.049885701282e-16
    68    9.301217905272e-05
    69    2.484328227261e-16
    70   -6.404181526778e-06
    71   -3.522312025946e-05
    72   -3.497133845025e-04
    73   -2.652278804579e-04
    74    4.650643603838e-05
    75   -2.873679016522e-16
    76   -2.326586973731e-05
    77    1.097225443999e-03
    78    8.494384265865e-03
    79    4.237296576932e-02
    80    1.454837863347e-01
    81    3.436683473548e-01
    82    1.255320620888e-01
    83    4.601373431355e-01
    84    2.872609143290e-13
    85   -1.376103430925e-15
    86   -7.258371902986e-05
    87    1.549572637968e-03
    88    3.247199275343e-12
    89    7.813697136516e-16
    90    1.311923727288e-04
    91    2.144753221468e-03
    92   -1.931093826986e-12
    93   -4.767509354051e-15
    94    1.023026038000e-03
    95    4.942643635169e-04
    96   -7.231150366216e-13
    97    2.468119874213e-14
    98    2.664903209167e-04
    99    6.554408110612e-05
   100   -1.048078814911e-12
   101   -8.996755181632e-14
   102   -1.597559337860e-04
   103    2.901236490617e-05
   104    1.878000256598e-12
   105   -3.097634620614e-16
   106    1.690959386030e-04
   107   -6.219820947508e-17
   108    3.850261292027e-04
   109    5.434772490620e-04
   110    1.388374640751e-04
   111    2.404649412297e-05
   112    2.919535473363e-13
   113   -1.115584725504e-16
   114    3.389164291815e-04
   115   -1.123686261101e-04
   116   -8.699959847803e-04
   117   -4.339440409945e-03
   118   -1.490138884345e-02
   119   -3.518659515158e-02
   120   -1.289569977879e-02
   121   -4.719937380661e-02
   122   -1.174129035065e-04
   123    2.595727828364e-16
   124   -5.059004131117e-05
   125    2.652876597135e-04
   126   -4.765249022112e-04
   127   -5.611379462459e-16
   128   -3.388159452971e-04
   129   -1.333215557830e-03
   130    8.485636426443e-04
   131    1.372529163806e-15
   132   -1.707696724972e-04
   133   -2.102675450768e-05
   134    3.246022349321e-04
   135   -1.941216808522e-14
   136   -2.697510269703e-04
   137   -2.910540055592e-05
   138    6.802425265810e-06
   139    6.851643354933e-14
   140    1.665475621612e-04
   141   -1.528052186967e-04
   142    2.812345519569e-04
   143   -6.805448436307e-17
   144    9.301217853318e-05
   145   -2.534890061547e-16
   146   -6.404179707183e-06
   147   -3.522311805419e-05
   148   -3.497133842786e-04
   149   -2.652278768965e-04
   150   -4.650643742180e-05
   151   -1.737249643582e-16
   152   -2.326586856033e-05
   153    2.676810557645e-05
   154    2.072722710429e-04
   155    1.033658917360e-03
   156    3.550148805998e-03
   157    8.375223497632e-03
   158    3.020122025368e-03
   159    1.125813339049e-02
   160    6.424059571306e-06
   161   -6.514481475590e-16
   162    4.198780920959e-05
   163    8.126251801943e-05
   164   -4.714513641198e-05
   165    4.680934445118e-16
   166   -1.198714083809e-04
   167    8.660556309962e-04
   168   -5.449917547858e-04
   169   -4.088861124716e-15
   170   -1.923010665324e-04
   171   -2.607702905792e-04
   172    6.662188652963e-06
   173    2.947785435580e-14
   174    1.789571496712e-04
   175   -7.224564340057e-05
   176    2.159060791646e-05
   177   -7.316762867174e-14
   178   -2.924227468502e-04
   179    4.123981785307e-05
   180    3.367302327460e-05
   181   -7.088944566794e-17
   182   -1.816435777981e-05
   183    3.099562741277e-16
   184    6.477368678537e-06
   185    1.274883401887e-04
   186    9.019663346649e-05
   187   -9.553465415822e-06
   188   -1.538823017523e-05
   189    7.104772113768e-17
   190   -2.314993121460e-05
   191   -1.477263289392e-06
   192   -1.139092748164e-05
   193   -5.715869005760e-05
   194   -1.949743589577e-04
   195   -4.726359568490e-04
   196   -2.240092319877e-04
   197   -5.933123965793e-04
   198    4.934142257210e-13
   199    1.015394965606e-15
   200   -2.002079764979e-06
   201    1.644331765743e-04
   202    4.730739731292e-12
   203   -2.584061499671e-15
   204   -3.980479911744e-05
   205   -1.137028082092e-03