[Molden Format]
[Atoms] (Angs)
  H      1    1     -2.14003202      0.00000000      0.38146042
  C      2    6     -1.21205832      0.00000000     -0.17180643
  C      3    6     -1.20429565      0.00000000     -1.56369320
  H      4    1     -2.14371879      0.00000000     -2.09923439
  C      5    6     -0.00000000      0.00000000     -2.26269040
  H      6    1     -0.00000000      0.00000000     -3.34354440
  C      7    6      1.20429565      0.00000000     -1.56369320
  H      8    1      2.14371879      0.00000000     -2.09923439
  C      9    6      1.21205832     -0.00000000     -0.17180643
  H     10    1      2.14003202     -0.00000000      0.38146042
  C     11    6      0.00000000     -0.00000000      0.51110416
 Cl     12   17      0.00000000     -0.00000000      2.24203561
[GTO]
1    0
S    3    1.000000
   3.38650000E+01    2.54938000E-02 
   5.09479000E+00    1.90373000E-01 
   1.15879000E+00    8.52161000E-01 
S    1    1.000000
   3.25840000E-01    1.00000000E+00 
S    1    1.000000
   1.02741000E-01    1.00000000E+00 
S    1    1.000000
   3.60000000E-02    1.00000000E+00 
P    1    1.000000
   7.50000000E-01    1.00000000E+00 

2    0
S    1    1.000000
   4.56324000E+03    1.96665000E-03 
S    1    1.000000
   6.82024000E+02    1.52306000E-02 
S    1    1.000000
   1.54973000E+02    7.61269000E-02 
S    1    1.000000
   4.44553000E+01    2.60801000E-01 
S    1    1.000000
   1.30290000E+01    6.16462000E-01 
S    1    1.000000
   1.82773000E+00    2.21006000E-01 
SP   3    1.000000
   2.09642000E+01    1.14660000E-01   4.02487000E-02 
   4.80331000E+00    9.19999000E-01   2.37594000E-01 
   1.45933000E+00   -3.03068000E-03   8.15854000E-01 
SP   1    1.000000
   4.83456000E-01    1.00000000E+00   1.00000000E+00 
SP   1    1.000000
   1.45585000E-01    1.00000000E+00   1.00000000E+00 
SP   1    1.000000
   4.38000000E-02    1.00000000E+00   1.00000000E+00 
SP   1    1.000000
   1.31927711E-02    1.00000000E+00   1.00000000E+00 
D    1    1.000000
   6.26000000E-01    1.00000000E+00 

3    0
S    1    1.000000
   4.56324000E+03    1.96665000E-03 
S    1    1.000000
   6.82024000E+02    1.52306000E-02 
S    1    1.000000
   1.54973000E+02    7.61269000E-02 
S    1    1.000000
   4.44553000E+01    2.60801000E-01 
S    1    1.000000
   1.30290000E+01    6.16462000E-01 
S    1    1.000000
   1.82773000E+00    2.21006000E-01 
SP   3    1.000000
   2.09642000E+01    1.14660000E-01   4.02487000E-02 
   4.80331000E+00    9.19999000E-01   2.37594000E-01 
   1.45933000E+00   -3.03068000E-03   8.15854000E-01 
SP   1    1.000000
   4.83456000E-01    1.00000000E+00   1.00000000E+00 
SP   1    1.000000
   1.45585000E-01    1.00000000E+00   1.00000000E+00 
SP   1    1.000000
   4.38000000E-02    1.00000000E+00   1.00000000E+00 
SP   1    1.000000
   1.31927711E-02    1.00000000E+00   1.00000000E+00 
D    1    1.000000
   6.26000000E-01    1.00000000E+00 

4    0
S    3    1.000000
   3.38650000E+01    2.54938000E-02 
   5.09479000E+00    1.90373000E-01 
   1.15879000E+00    8.52161000E-01 
S    1    1.000000
   3.25840000E-01    1.00000000E+00 
S    1    1.000000
   1.02741000E-01    1.00000000E+00 
S    1    1.000000
   3.60000000E-02    1.00000000E+00 
P    1    1.000000
   7.50000000E-01    1.00000000E+00 

5    0
S    1    1.000000
   4.56324000E+03    1.96665000E-03 
S    1    1.000000
   6.82024000E+02    1.52306000E-02 
S    1    1.000000
   1.54973000E+02    7.61269000E-02 
S    1    1.000000
   4.44553000E+01    2.60801000E-01 
S    1    1.000000
   1.30290000E+01    6.16462000E-01 
S    1    1.000000
   1.82773000E+00    2.21006000E-01 
SP   3    1.000000
   2.09642000E+01    1.14660000E-01   4.02487000E-02 
   4.80331000E+00    9.19999000E-01   2.37594000E-01 
   1.45933000E+00   -3.03068000E-03   8.15854000E-01 
SP   1    1.000000
   4.83456000E-01    1.00000000E+00   1.00000000E+00 
SP   1    1.000000
   1.45585000E-01    1.00000000E+00   1.00000000E+00 
SP   1    1.000000
   4.38000000E-02    1.00000000E+00   1.00000000E+00 
SP   1    1.000000
   1.31927711E-02    1.00000000E+00   1.00000000E+00 
D    1    1.000000
   6.26000000E-01    1.00000000E+00 

6    0
S    3    1.000000
   3.38650000E+01    2.54938000E-02 
   5.09479000E+00    1.90373000E-01 
   1.15879000E+00    8.52161000E-01 
S    1    1.000000
   3.25840000E-01    1.00000000E+00 
S    1    1.000000
   1.02741000E-01    1.00000000E+00 
S    1    1.000000
   3.60000000E-02    1.00000000E+00 
P    1    1.000000
   7.50000000E-01    1.00000000E+00 

7    0
S    1    1.000000
   4.56324000E+03    1.96665000E-03 
S    1    1.000000
   6.82024000E+02    1.52306000E-02 
S    1    1.000000
   1.54973000E+02    7.61269000E-02 
S    1    1.000000
   4.44553000E+01    2.60801000E-01 
S    1    1.000000
   1.30290000E+01    6.16462000E-01 
S    1    1.000000
   1.82773000E+00    2.21006000E-01 
SP   3    1.000000
   2.09642000E+01    1.14660000E-01   4.02487000E-02 
   4.80331000E+00    9.19999000E-01   2.37594000E-01 
   1.45933000E+00   -3.03068000E-03   8.15854000E-01 
SP   1    1.000000
   4.83456000E-01    1.00000000E+00   1.00000000E+00 
SP   1    1.000000
   1.45585000E-01    1.00000000E+00   1.00000000E+00 
SP   1    1.000000
   4.38000000E-02    1.00000000E+00   1.00000000E+00 
SP   1    1.000000
   1.31927711E-02    1.00000000E+00   1.00000000E+00 
D    1    1.000000
   6.26000000E-01    1.00000000E+00 

8    0
S    3    1.000000
   3.38650000E+01    2.54938000E-02 
   5.09479000E+00    1.90373000E-01 
   1.15879000E+00    8.52161000E-01 
S    1    1.000000
   3.25840000E-01    1.00000000E+00 
S    1    1.000000
   1.02741000E-01    1.00000000E+00 
S    1    1.000000
   3.60000000E-02    1.00000000E+00 
P    1    1.000000
   7.50000000E-01    1.00000000E+00 

9    0
S    1    1.000000
   4.56324000E+03    1.96665000E-03 
S    1    1.000000
   6.82024000E+02    1.52306000E-02 
S    1    1.000000
   1.54973000E+02    7.61269000E-02 
S    1    1.000000
   4.44553000E+01    2.60801000E-01 
S    1    1.000000
   1.30290000E+01    6.16462000E-01 
S    1    1.000000
   1.82773000E+00    2.21006000E-01 
SP   3    1.000000
   2.09642000E+01    1.14660000E-01   4.02487000E-02 
   4.80331000E+00    9.19999000E-01   2.37594000E-01 
   1.45933000E+00   -3.03068000E-03   8.15854000E-01 
SP   1    1.000000
   4.83456000E-01    1.00000000E+00   1.00000000E+00 
SP   1    1.000000
   1.45585000E-01    1.00000000E+00   1.00000000E+00 
SP   1    1.000000
   4.38000000E-02    1.00000000E+00   1.00000000E+00 
SP   1    1.000000
   1.31927711E-02    1.00000000E+00   1.00000000E+00 
D    1    1.000000
   6.26000000E-01    1.00000000E+00 

10    0
S    3    1.000000
   3.38650000E+01    2.54938000E-02 
   5.09479000E+00    1.90373000E-01 
   1.15879000E+00    8.52161000E-01 
S    1    1.000000
   3.25840000E-01    1.00000000E+00 
S    1    1.000000
   1.02741000E-01    1.00000000E+00 
S    1    1.000000
   3.60000000E-02    1.00000000E+00 
P    1    1.000000
   7.50000000E-01    1.00000000E+00 

11    0
S    1    1.000000
   4.56324000E+03    1.96665000E-03 
S    1    1.000000
   6.82024000E+02    1.52306000E-02 
S    1    1.000000
   1.54973000E+02    7.61269000E-02 
S    1    1.000000
   4.44553000E+01    2.60801000E-01 
S    1    1.000000
   1.30290000E+01    6.16462000E-01 
S    1    1.000000
   1.82773000E+00    2.21006000E-01 
SP   3    1.000000
   2.09642000E+01    1.14660000E-01   4.02487000E-02 
   4.80331000E+00    9.19999000E-01   2.37594000E-01 
   1.45933000E+00   -3.03068000E-03   8.15854000E-01 
SP   1    1.000000
   4.83456000E-01    1.00000000E+00   1.00000000E+00 
SP   1    1.000000
   1.45585000E-01    1.00000000E+00   1.00000000E+00 
SP   1    1.000000
   4.38000000E-02    1.00000000E+00   1.00000000E+00 
SP   1    1.000000
   1.31927711E-02    1.00000000E+00   1.00000000E+00 
D    1    1.000000
   6.26000000E-01    1.00000000E+00 

12    0
S    6    1.000000
   1.05819000E+05    7.38000000E-04 
   1.58720000E+04    5.71800000E-03 
   3.61965000E+03    2.94950000E-02 
   1.03080000E+03    1.17286000E-01 
   3.39908000E+02    3.62949000E-01 
   1.24538000E+02    5.84149000E-01 
S    3    1.000000
   1.24538000E+02    1.34177000E-01 
   4.95135000E+01    6.24250000E-01 
   2.08056000E+01    2.91756000E-01 
S    1    1.000000
   6.58346000E+00    1.00000000E+00 
S    1    1.000000
   2.56468000E+00    1.00000000E+00 
S    1    1.000000
   5.59763000E-01    1.00000000E+00 
S    1    1.000000
   1.83273000E-01    1.00000000E+00 
P    5    1.000000
   5.89776000E+02    2.39100000E-03 
   1.39849000E+02    1.85040000E-02 
   4.51413000E+01    8.13770000E-02 
   1.68733000E+01    2.21552000E-01 
   6.74110000E+00    7.72569000E-01 
P    2    1.000000
   6.74110000E+00   -1.57224400E+00 
   2.77152000E+00    9.92389000E-01 
P    1    1.000000
   1.02387000E+00    1.00000000E+00 
P    1    1.000000
   3.81368000E-01    1.00000000E+00 
P    1    1.000000
   1.09437000E-01    1.00000000E+00 
SP   1    1.000000
   4.83000000E-02    1.00000000E+00   1.00000000E+00 
SP   1    1.000000
   1.45481928E-02    1.00000000E+00   1.00000000E+00 
D    1    1.000000
   7.50000000E-01    1.00000000E+00 

[MO]
Sym=X
Ene= -0.243221
Spin=Alpha
Occup=1
     1   -2.761809734672e-04
     2   -4.641175416828e-04
     3   -6.367190810647e-05
     4    2.959251567227e-04
     5   -2.299517852546e-04
     6    8.461941018662e-17
     7    1.242194229032e-04
     8   -7.826020347858e-04
     9   -6.058681258569e-03
    10   -3.022268416229e-02
    11   -1.037672078447e-01
    12   -2.451185609067e-01
    13   -8.950688597218e-02
    14   -3.281979061124e-01
    15   -4.294521049095e-05
    16   -1.031720837021e-15
    17   -6.120976586555e-05
    18   -1.252145041741e-03
    19   -1.748218049452e-04
    20    2.548714392716e-15
    21    4.266462642587e-05
    22   -1.746500376979e-03
    23   -7.407085858088e-04
    24   -5.695366475130e-16
    25    5.815444168398e-04
    26    1.699665443671e-03
    27    1.033467776287e-04
    28    4.029027142648e-14
    29   -8.587580507052e-04
    30    2.055697337120e-04
    31    9.899182226496e-05
    32   -6.211711304216e-13
    33    2.124735111384e-04
    34   -4.831846734181e-05
    35   -7.973417780218e-05
    36   -3.981414058482e-16
    37   -1.039434582133e-04
    38    1.219385940732e-16
    39   -1.967922893674e-07
    40   -1.509102347309e-06
    41   -7.556567898471e-06
    42   -2.534340389342e-05
    43   -6.040976932220e-05
    44    4.116382165903e-05
    45   -5.544622731998e-05
    46    6.356362602568e-06
    47    7.096881494825e-16
    48   -8.583772583397e-05
    49   -3.702116411920e-04
    50    3.083547325882e-05
    51    8.030222120510e-16
    52   -4.690491192494e-04
    53    1.354600810693e-03
    54    6.122535564975e-04
    55    3.813697804697e-15
    56    6.075557240027e-04
    57    2.844872819425e-04
    58    9.960735826578e-04
    59   -2.787644219206e-14
    60   -2.307980739058e-04
    61    1.098709039890e-04
    62   -1.118226849526e-05
    63    5.072959179103e-13
    64   -1.167834023769e-05
    65   -2.355750174230e-04
    66   -1.820052458238e-05
    67    1.451184459111e-16
    68    1.256570836190e-04
    69    4.004292473442e-16
    70   -3.027671115266e-05
    71   -4.422084532966e-07
    72    3.957070299204e-04
    73    4.221335794516e-04
    74   -2.509899255264e-05
    75    7.861851848993e-16
    76   -5.495786889897e-05
    77    7.392743817867e-05
    78    5.722725429547e-04
    79    2.855059213021e-03
    80    9.801195837172e-03
    81    2.316716300404e-02
    82    8.526550563206e-03
    83    3.096437560635e-02
    84   -5.107887731886e-12
    85    4.202674186243e-16
    86    2.363867402829e-05
    87   -1.675634493242e-05
    88   -6.025147772741e-11
    89    2.025384655069e-15
    90   -1.619460784289e-04
    91   -8.355680087374e-04
    92    3.728602624139e-11
    93    1.958158919178e-15
    94   -5.762348177373e-04
    95   -3.516189733862e-03
    96   -5.562727750244e-11
    97    2.675287993495e-14
    98   -7.841131001815e-04
    99   -1.439502206306e-04
   100    1.077901397411e-11
   101   -4.933675452148e-13
   102   -3.213267698504e-05
   103    1.054536157381e-05
   104   -3.509858614783e-11
   105   -7.560287800325e-17
   106    9.232511759214e-07
   107    1.601523407130e-16
   108    2.278125703240e-05
   109   -1.162526477046e-04
   110   -9.139597153345e-05
   111   -2.882228811944e-04
   112   -5.500156461601e-12
   113    2.235214432712e-16
   114   -8.955576161274e-06
   115   -1.968788610287e-07
   116   -1.509772538518e-06
   117   -7.559911189865e-06
   118   -2.535488212556e-05
   119   -6.043688835146e-05
   120    4.115391253413e-05
   121   -5.548251643990e-05
   122   -6.356365343649e-06
   123    1.294774463123e-15
   124   -8.583774202192e-05
   125   -3.702117938629e-04
   126   -3.083548363579e-05
   127    7.022222591371e-16
   128   -4.690491965108e-04
   129    1.354600724396e-03
   130   -6.122535319104e-04
   131    5.067112200008e-15
   132    6.075557492936e-04
   133    2.844874363087e-04
   134   -9.960736428880e-04
   135   -3.144066869186e-14
   136   -2.307981162328e-04
   137    1.098709160467e-04
   138    1.118224646221e-05
   139    5.259603607575e-13
   140   -1.167832322625e-05
   141   -2.355750670359e-04
   142    1.820052690527e-05
   143   -1.319001146202e-16
   144    1.256570943857e-04
   145   -3.492318941666e-16
   146   -3.027674459062e-05
   147   -4.422483959048e-07
   148    3.957070459637e-04
   149    4.221336081894e-04
   150    2.509901788531e-05
   151    3.929778392620e-16
   152   -5.495789102258e-05
   153   -7.826021712335e-04
   154   -6.058682314890e-03
   155   -3.022268943170e-02
   156   -1.037672259362e-01
   157   -2.451186036472e-01
   158   -8.950690159170e-02
   159   -3.281979633189e-01
   160    4.294522693736e-05
   161   -6.702469397531e-16
   162   -6.120977017421e-05
   163   -1.252145256575e-03
   164    1.748217779358e-04
   165    2.340679805886e-15
   166    4.266470256360e-05
   167   -1.746500551117e-03
   168    7.407086685814e-04
   169   -2.176321771824e-15
   170    5.815443800971e-04
   171    1.699665582768e-03
   172   -1.033467967862e-04
   173    4.415066353567e-14
   174   -8.587580136946e-04
   175    2.055697350207e-04
   176   -9.899181176584e-05
   177   -6.398532453171e-13
   178    2.124734911502e-04
   179   -4.831851755515e-05
   180    7.973417236348e-05
   181   -8.070160084388e-17
   182   -1.039434542984e-04
   183   -1.548297245646e-16
   184   -2.761810226319e-04
   185   -4.641175958024e-04
   186   -6.367191102427e-05
   187    2.959251639253e-04
   188    2.299518192029e-04
   189    6.104220204133e-17
   190    1.242194505819e-04
   191   -2.434580409054e-06
   192   -1.879784619347e-05
   193   -9.395247191283e-05
   194   -3.207378622480e-04
   195   -7.635823163840e-04
   196   -1.504311024374e-04
   197   -9.448838888821e-04
   198   -9.977907242029e-12
   199   -6.829707437571e-17
   200    9.246478792872e-05
   201   -7.848521860066e-04
   202   -9.228050268380e-11
   203    7.228853132503e-16
   204    2.955294888631e-04
   205    1.543619104215e-03
   206    7.268018843303e-11
   207    4.439748413667e-15
   208   -9.033129701052e-04
   209   -7.376914081653e-04
   210   -4.949737667666e-11
   211   -4.855472722942e-14
   212    1.927999759358e-03
   213    6.542577084585e-05
   214   -7.380231906864e-12
   215    7.663516761603e-13
   216   -2.618649859838e-04
   217    1.490730287185e-04
   218    4.565567165019e-11
   219   -2.733368831745e-16
   220   -1.568506765931e-04
   221   -1.098297853170e-16
   222   -1.035301325179e-06
   223   -1.069215733301e-06
   224   -9.693070279341e-06
   225    2.996772498787e-05
   226   -4.428751397416e-05
   227    2.315213942763e-04
   228   -1.684372688177e-12
   229    1.417414283460e-15
   230    3.014532782569e-06
   231   -9.774028231564e-13
   232    1.044482832865e-15
   233   -3.154524960174e-06
   234    3.548928937472e-12
   235   -2.333540647673e-16
   236   -1.044189872478e-05
   237   -6.391987865587e-12
   238   -1.145466183803e-15
   239    1.064826451163e-05
   240   -7.810592414084e-14
   241    4.896284778050e-15
   242   -1.359332730269e-04
   243   -1.212424888960e-03
   244    1.251334104377e-12
   245   -1.339229159472e-15
   246    2.942954531347e-04
   247   -7.095673906841e-04
   248    3.545935625832e-12
   249   -5.648389981169e-14
   250    2.174139660952e-04
   251   -2.962738475359e-05
   252    2.744044207302e-12
   253    1.732979906871e-16
   254    4.240344838070e-07
   255   -5.742649419078e-17
Sym=X
Ene= -0.545267
Spin=Alpha
Occup=1
     1   -2.728420104544e-04
     2   -2.882020284259e-04
     3   -8.504512294580e-05
     4   -3.712535758392e-05
     5   -1.845196354132e-04
     6   -5.060978892545e-17
     7    1.264695782122e-04
     8   -7.841707964050e-04
     9   -6.070769322261e-03
    10   -3.028339225741e-02
    11   -1.039740904623e-01
    12   -2.456230896134e-01
    13   -8.976304793629e-02
    14   -3.288157170382e-01
    15   -8.614393567289e-05
    16   -1.598363346702e-15
    17   -8.003200811769e-05
    18   -1.097918706401e-03
    19    1.074371783421e-04
    20    1.751760665231e-15
    21    1.484201611135e-04
    22   -1.053238881025e-03
    23   -4.698949402924e-04
    24   -1.741444431400e-15
    25   -2.861205696167e-05
    26    9.990452534332e-04
    27    1.595588845822e-05
    28    1.244561779230e-14
    29    1.412815215475e-04
    30    1.576910421197e-05
    31   -1.291970065797e-05
    32   -8.949693849186e-15
    33   -8.319359099577e-05
    34   -1.414399275208e-04
    35    9.085645430318e-06
    36    1.690142218665e-16
    37   -4.891076783697e-05
    38    3.560141187088e-16
    39    1.683005192719e-05
    40    1.303812588142e-04
    41    6.498338986264e-04
    42    2.233828536401e-03
    43    5.257103616838e-03
    44    1.911502249414e-03
    45    7.134360070137e-03
    46   -9.915372466014e-06
    47   -5.810816701857e-16
    48   -8.843285301238e-05
    49   -1.617062151947e-04
    50    6.338890606645e-05
    51   -3.234623832484e-16
    52   -3.952581326856e-04
    53    1.089421417924e-04
    54    7.087198931607e-05
    55    5.849477611558e-16
    56    2.088625275662e-04
    57    3.258477323689e-04
    58    2.658809463035e-04
    59   -1.155307780319e-14
    60   -2.292356492729e-04
    61    3.419650615375e-05
    62    4.077511693804e-05
    63    1.211934338754e-14
    64    7.008236635201e-05
    65   -2.045365417281e-04
    66   -2.896221341448e-05
    67    6.064630794164e-17
    68    1.074809069291e-04
    69    1.569304752435e-16
    70   -1.022520700962e-05
    71   -2.257450887293e-05
    72    1.017505731039e-04
    73    1.084729607753e-04
    74   -1.505852072305e-05
    75   -1.625417107324e-16
    76   -4.488647484133e-05
    77   -1.143834174584e-11
    78   -8.855015069508e-11
    79   -4.417280785987e-10
    80   -1.516530818730e-09
    81   -3.582586736902e-09
    82   -1.299468243152e-09
    83   -4.793104041807e-09
    84   -3.367740896206e-05
    85    6.217357957871e-17
    86   -2.956586420052e-12
    87   -6.343038770864e-11
    88    1.853771619327e-04
    89    8.415367358219e-16
    90   -3.975616033534e-11
    91   -3.259818535041e-11
    92   -1.691244747773e-04
    93   -3.114843829478e-16
    94   -1.715624916644e-11
    95   -4.249266796508e-10
    96    3.631965021668e-04
    97    7.168338338344e-15
    98   -8.632861115868e-11
    99   -2.181201054831e-11
   100   -3.320168171210e-05
   101    1.459403337891e-14
   102    1.302156552754e-12
   103    1.185461826154e-11
   104    1.147737866479e-04
   105    7.106886242456e-17
   106   -1.114085754939e-11
   107   -1.812800465223e-16
   108   -7.192348546986e-12
   109   -2.245025110615e-11
   110    1.359344510843e-11
   111   -2.372238586423e-11
   112    1.991436885240e-05
   113   -4.510972671659e-17
   114   -1.229956680435e-11
   115   -1.683014891887e-05
   116   -1.303820096931e-04
   117   -6.498376442853e-04
   118   -2.233841396601e-03
   119   -5.257133995726e-03
   120   -1.911513326768e-03
   121   -7.134400740038e-03
   122   -9.915379768895e-06
   123   -8.375242987602e-16
   124    8.843283712134e-05
   125    1.617059838297e-04
   126    6.338894934792e-05
   127   -1.115421845149e-15
   128    3.952580657811e-04
   129   -1.089420630340e-04
   130    7.087192514258e-05
   131   -1.610788289963e-15
   132   -2.088624790509e-04
   133   -3.258475958914e-04
   134    2.658807171459e-04
   135   -4.410896883268e-15
   136    2.292356346620e-04
   137   -3.419647999393e-05
   138    4.077511514027e-05
   139   -3.566877472037e-14
   140   -7.008238120660e-05
   141    2.045365015373e-04
   142   -2.896223257125e-05
   143   -7.873547486502e-17
   144   -1.074809040256e-04
   145    7.049086258650e-17
   146    1.022516554676e-05
   147    2.257445412677e-05
   148   -1.017504930083e-04
   149   -1.084728460445e-04
   150   -1.505848454100e-05
   151   -1.629096932351e-16
   152    4.488645074649e-05
   153    7.841706604827e-04
   154    6.070768269999e-03
   155    3.028338700838e-02
   156    1.039740724402e-01
   157    2.456230470422e-01
   158    8.976303240253e-02
   159    3.288156600392e-01
   160   -8.614392871256e-05
   161    5.359861428404e-16
   162    8.003200652405e-05
   163    1.097918433954e-03
   164    1.074372111358e-04
   165   -1.196273303719e-15
   166   -1.484200875211e-04
   167    1.053238692866e-03
   168   -4.698948507299e-04
   169    1.682980113327e-15
   170    2.861209759926e-05
   171   -9.990448643703e-04
   172    1.595582307016e-05
   173    2.377811673144e-15
   174   -1.412817125027e-04
   175   -1.576905291839e-05
   176   -1.291972061982e-05
   177    4.032588187195e-14
   178    8.319367143094e-05
   179    1.414398870535e-04
   180    9.085657255615e-06
   181    4.983833759771e-16
   182    4.891076567570e-05
   183   -1.090671612289e-15
   184    2.728419589472e-04
   185    2.882019393013e-04
   186    8.504515021157e-05
   187    3.712542955653e-05
   188   -1.845195914382e-04
   189   -1.847904036853e-16
   190   -1.264695484008e-04
   191    1.561732658214e-12
   192    1.208521001680e-11
   193    6.031064387684e-11
   194    2.070793856420e-10
   195    4.901190955008e-10
   196    1.960416796484e-10
   197    6.578082784904e-10
   198    1.366615890008e-04
   199    1.837594618018e-16
   200    8.911264004670e-12
   201   -8.037812570777e-11
   202    9.143721302477e-04
   203    2.418507427928e-15
   204    3.332449822508e-11
   205    1.169461770307e-10
   206   -6.667665131765e-04
   207   -9.594122700944e-16
   208   -6.782189635917e-11
   209   -1.450070034580e-10
   210    5.639300385273e-04
   211   -4.138413853233e-15
   212    2.859434148428e-10
   213    2.218682854157e-12
   214    3.459686625278e-05
   215   -2.691296740462e-14
   216   -6.402602970689e-11
   217    1.282809985485e-11
   218   -4.439694594302e-04
   219   -1.369708256698e-16
   220   -1.392273962052e-11
   221   -3.817094969563e-16
   222   -1.110360169265e-13
   223   -9.625381538991e-14
   224   -1.176066680892e-12
   225    3.744494500476e-12
   226   -6.542593778697e-12
   227    2.275988234807e-11
   228    1.683019929082e-05
   229   -5.047986827078e-15
   230    2.446182945990e-13
   231    9.035060305648e-06
   232   -2.225751289806e-15
   233   -2.483402648384e-13
   234   -3.319566107194e-05
   235    1.012817056091e-15
   236   -1.179140459506e-12
   237    5.247846309027e-05
   238    7.690204234799e-16
   239    2.314029109206e-12
   240    1.217921031181e-05
   241   -1.635679298202e-16
   242   -1.498807150567e-11
   243   -1.907721255319e-10
   244   -3.916386633943e-05
   245    3.547511123445e-16
   246    4.420857045071e-11
   247   -7.534050146595e-11
   248   -2.659278405218e-05
   249    6.912031793766e-15
   250    3.087454791962e-11
   251   -2.543729051648e-12
   252   -2.651904272935e-05
   253   -4.371994620122e-16
   254    2.418252925434e-13
   255    2.195798584549e-16
Sym=X
Ene= 0.545267
Spin=Alpha
Occup=0
     1    1.945375654057e-15
     2    2.419640019694e-13
     3   -1.273286642605e-12
     4   -1.827764724036e-11
     5    7.039776013782e-15
     6   -1.619114853137e-02
     7   -2.762236690607e-14
     8    7.698527290873e-17
     9    1.392084688645e-16
    10   -6.440840477615e-16
    11   -2.386729556437e-15
    12   -1.189024190473e-15
    13    3.203849866841e-15
    14   -1.331688276073e-14
    15   -1.142755698604e-14
    16   -1.936445741677e-01
    17    9.394762093968e-15
    18    1.439615344314e-14
    19   -3.994584325119e-15
    20   -2.556496421128e-01
    21    1.730409124093e-14
    22    5.477690627124e-13
    23    3.024003941797e-13
    24   -3.238181571832e-01
    25    2.735258266972e-14
    26   -2.017928806953e-11
    27   -2.365904257070e-11
    28   -1.667238467147e-01
    29   -4.406413219736e-12
    30   -1.514587844216e-12
    31    3.885707494890e-12
    32    4.767112824296e-02
    33    1.511149827905e-11
    34    2.290621013492e-14
    35    1.805664327406e-14
    36   -2.299032314972e-02
    37   -5.078770260375e-15
    38    1.968510846425e-03
    39    2.786546484617e-16
    40   -7.743169577398e-16
    41    1.928190119773e-15
    42   -2.355090216766e-15
    43    6.032517536772e-15
    44   -1.228358541293e-16
    45   -9.343427302136e-17
    46    3.722736220079e-15
    47    1.294960553137e-01
    48    2.982491356149e-14
    49   -3.144855870778e-15
    50   -3.657055228539e-16
    51    2.093020868077e-01
    52    4.663344091971e-14
    53   -8.044259304439e-13
    54   -2.670232713915e-13
    55    3.569275601933e-01
    56    2.731087496356e-13
    57    8.528649937896e-12
    58    1.632139692123e-11
    59    2.289017040903e-01
    60   -9.634050618158e-12
    61   -3.192943538322e-12
    62   -6.664917108651e-12
    63   -3.332671800832e-02
    64   -3.052397149313e-12
    65    2.795346458758e-15
    66    1.592919156935e-14
    67   -1.645398740720e-02
    68    1.786824767110e-14
    69    2.394459407191e-03
    70    1.750532290529e-14
    71    5.214343055159e-14
    72    5.902574467652e-13
    73    7.712588967603e-12
    74    7.007865068138e-15
    75    1.312716237910e-02
    76   -2.115329560395e-14
    77    3.750585690925e-16
    78    7.488895402721e-16
    79    4.726647268069e-16
    80    1.746655961961e-15
    81    5.126365048281e-15
    82    6.571990552180e-15
    83    1.280676238724e-14
    84   -3.387778633236e-15
    85   -3.566402415489e-12
    86    3.522662623930e-14
    87   -8.172677134644e-14
    88   -8.104949258836e-17
    89   -5.996969974348e-12
    90    1.599045218892e-14
    91    1.930135524669e-13
    92   -4.781020981194e-13
    93   -1.418811368286e-11
    94    5.736143250208e-13
    95   -8.770800864522e-12
    96    8.668941828400e-12
    97   -1.658254391084e-10
    98    1.273958558756e-11
    99   -5.681978660653e-12
   100    3.377615333347e-12
   101   -2.683430766469e-11
   102   -1.316245905842e-12
   103    1.096740341414e-14
   104    1.689418443594e-14
   105    5.515571786499e-13
   106   -7.092377558371e-15
   107   -3.504664608802e-02
   108   -7.161498523303e-15
   109   -1.632521406929e-13
   110    1.493691062709e-12
   111    1.529353467160e-11
   112    2.198962588500e-14
   113   -7.256423623822e-13
   114   -1.232683018109e-14
   115    1.229133377910e-16
   116   -1.401205555114e-16
   117    1.190041006479e-15
   118   -9.989898379091e-16
   119    1.072867930045e-14
   120    1.432617249179e-14
   121   -3.003964205249e-15
   122   -3.125896407427e-15
   123   -1.294960553090e-01
   124   -9.101862636052e-16
   125   -5.107706382413e-14
   126    1.554242854732e-14
   127   -2.093020867997e-01
   128    3.169235361465e-14
   129   -2.719402291445e-13
   130    1.417894168348e-13
   131   -3.569275601785e-01
   132   -7.333389534539e-13
   133   -3.641973021794e-11
   134    1.456857664504e-11
   135   -2.289017037545e-01
   136   -9.729875774089e-12
   137   -5.812025058199e-12
   138    3.172701621964e-12
   139    3.332671680813e-02
   140   -3.087170873708e-13
   141   -1.220877986684e-14
   142    3.797428400532e-15
   143    1.645398740831e-02
   144   -2.699022079616e-14
   145    2.394459408702e-03
   146    9.530933534886e-15
   147    1.097539393449e-13
   148   -1.383847981334e-12
   149   -1.523600110896e-11
   150   -5.597774528408e-15
   151   -1.312716237803e-02
   152   -2.417046514626e-15
   153   -4.850550700872e-16
   154    5.694074951430e-16
   155   -1.597021317698e-15
   156   -7.597136108485e-16
   157   -1.070764366611e-14
   158   -9.794919999001e-15
   159   -5.852682388429e-15
   160    9.449594309047e-15
   161    1.936445741692e-01
   162    7.571795331016e-15
   163    6.945841888797e-14
   164    4.852587367305e-14
   165    2.556496421151e-01
   166    1.728216496839e-15
   167    6.394453384372e-13
   168   -3.946596421150e-13
   169    3.238181571939e-01
   170   -5.044741046514e-13
   171    3.449785418482e-11
   172   -5.343166091039e-12
   173    1.667238463916e-01
   174   -3.609308458636e-12
   175    4.491953058814e-13
   176    2.691935529833e-13
   177   -4.767112369065e-02
   178    6.981939416098e-12
   179   -1.027631229230e-14
   180    3.866387354900e-15
   181    2.299032314849e-02
   182   -3.809515062898e-15
   183    1.968510847474e-03
   184    9.499698611503e-15
   185    5.192624544322e-14
   186    5.845343600872e-13
   187   -4.442202933004e-13
   188   -1.134927657801e-14
   189    1.619114853162e-02
   190    1.651207710488e-14
   191    4.026321958813e-16
   192   -8.906760428188e-16
   193    3.013921643833e-15
   194   -2.687215390675e-15
   195    1.325412441719e-14
   196    2.100580175863e-14
   197   -1.058823524972e-14
   198    3.400511400419e-15
   199   -3.554164332411e-12
   200    2.303975463766e-14
   201   -6.219092382462e-14
   202   -1.038662238297e-14
   203   -3.828075963506e-12
   204    3.846793953267e-14
   205   -4.611845989857e-13