[Molden Format]
[Atoms] (Angs)
  H      1    1     -2.14003202      0.00000000      0.38146042
  C      2    6     -1.21205832      0.00000000     -0.17180643
  C      3    6     -1.20429565      0.00000000     -1.56369320
  H      4    1     -2.14371879      0.00000000     -2.09923439
  C      5    6     -0.00000000      0.00000000     -2.26269040
  H      6    1     -0.00000000      0.00000000     -3.34354440
  C      7    6      1.20429565      0.00000000     -1.56369320
  H      8    1      2.14371879      0.00000000     -2.09923439
  C      9    6      1.21205832     -0.00000000     -0.17180643
  H     10    1      2.14003202     -0.00000000      0.38146042
  C     11    6      0.00000000     -0.00000000      0.51110416
 Cl     12   17      0.00000000     -0.00000000      2.24203561
[GTO]
1    0
S    3    1.000000
   3.38650000E+01    2.54938000E-02 
   5.09479000E+00    1.90373000E-01 
   1.15879000E+00    8.52161000E-01 
S    1    1.000000
   3.25840000E-01    1.00000000E+00 
S    1    1.000000
   1.02741000E-01    1.00000000E+00 
S    1    1.000000
   3.60000000E-02    1.00000000E+00 
P    1    1.000000
   7.50000000E-01    1.00000000E+00 

2    0
S    1    1.000000
   4.56324000E+03    1.96665000E-03 
S    1    1.000000
   6.82024000E+02    1.52306000E-02 
S    1    1.000000
   1.54973000E+02    7.61269000E-02 
S    1    1.000000
   4.44553000E+01    2.60801000E-01 
S    1    1.000000
   1.30290000E+01    6.16462000E-01 
S    1    1.000000
   1.82773000E+00    2.21006000E-01 
SP   3    1.000000
   2.09642000E+01    1.14660000E-01   4.02487000E-02 
   4.80331000E+00    9.19999000E-01   2.37594000E-01 
   1.45933000E+00   -3.03068000E-03   8.15854000E-01 
SP   1    1.000000
   4.83456000E-01    1.00000000E+00   1.00000000E+00 
SP   1    1.000000
   1.45585000E-01    1.00000000E+00   1.00000000E+00 
SP   1    1.000000
   4.38000000E-02    1.00000000E+00   1.00000000E+00 
SP   1    1.000000
   1.31927711E-02    1.00000000E+00   1.00000000E+00 
D    1    1.000000
   6.26000000E-01    1.00000000E+00 

3    0
S    1    1.000000
   4.56324000E+03    1.96665000E-03 
S    1    1.000000
   6.82024000E+02    1.52306000E-02 
S    1    1.000000
   1.54973000E+02    7.61269000E-02 
S    1    1.000000
   4.44553000E+01    2.60801000E-01 
S    1    1.000000
   1.30290000E+01    6.16462000E-01 
S    1    1.000000
   1.82773000E+00    2.21006000E-01 
SP   3    1.000000
   2.09642000E+01    1.14660000E-01   4.02487000E-02 
   4.80331000E+00    9.19999000E-01   2.37594000E-01 
   1.45933000E+00   -3.03068000E-03   8.15854000E-01 
SP   1    1.000000
   4.83456000E-01    1.00000000E+00   1.00000000E+00 
SP   1    1.000000
   1.45585000E-01    1.00000000E+00   1.00000000E+00 
SP   1    1.000000
   4.38000000E-02    1.00000000E+00   1.00000000E+00 
SP   1    1.000000
   1.31927711E-02    1.00000000E+00   1.00000000E+00 
D    1    1.000000
   6.26000000E-01    1.00000000E+00 

4    0
S    3    1.000000
   3.38650000E+01    2.54938000E-02 
   5.09479000E+00    1.90373000E-01 
   1.15879000E+00    8.52161000E-01 
S    1    1.000000
   3.25840000E-01    1.00000000E+00 
S    1    1.000000
   1.02741000E-01    1.00000000E+00 
S    1    1.000000
   3.60000000E-02    1.00000000E+00 
P    1    1.000000
   7.50000000E-01    1.00000000E+00 

5    0
S    1    1.000000
   4.56324000E+03    1.96665000E-03 
S    1    1.000000
   6.82024000E+02    1.52306000E-02 
S    1    1.000000
   1.54973000E+02    7.61269000E-02 
S    1    1.000000
   4.44553000E+01    2.60801000E-01 
S    1    1.000000
   1.30290000E+01    6.16462000E-01 
S    1    1.000000
   1.82773000E+00    2.21006000E-01 
SP   3    1.000000
   2.09642000E+01    1.14660000E-01   4.02487000E-02 
   4.80331000E+00    9.19999000E-01   2.37594000E-01 
   1.45933000E+00   -3.03068000E-03   8.15854000E-01 
SP   1    1.000000
   4.83456000E-01    1.00000000E+00   1.00000000E+00 
SP   1    1.000000
   1.45585000E-01    1.00000000E+00   1.00000000E+00 
SP   1    1.000000
   4.38000000E-02    1.00000000E+00   1.00000000E+00 
SP   1    1.000000
   1.31927711E-02    1.00000000E+00   1.00000000E+00 
D    1    1.000000
   6.26000000E-01    1.00000000E+00 

6    0
S    3    1.000000
   3.38650000E+01    2.54938000E-02 
   5.09479000E+00    1.90373000E-01 
   1.15879000E+00    8.52161000E-01 
S    1    1.000000
   3.25840000E-01    1.00000000E+00 
S    1    1.000000
   1.02741000E-01    1.00000000E+00 
S    1    1.000000
   3.60000000E-02    1.00000000E+00 
P    1    1.000000
   7.50000000E-01    1.00000000E+00 

7    0
S    1    1.000000
   4.56324000E+03    1.96665000E-03 
S    1    1.000000
   6.82024000E+02    1.52306000E-02 
S    1    1.000000
   1.54973000E+02    7.61269000E-02 
S    1    1.000000
   4.44553000E+01    2.60801000E-01 
S    1    1.000000
   1.30290000E+01    6.16462000E-01 
S    1    1.000000
   1.82773000E+00    2.21006000E-01 
SP   3    1.000000
   2.09642000E+01    1.14660000E-01   4.02487000E-02 
   4.80331000E+00    9.19999000E-01   2.37594000E-01 
   1.45933000E+00   -3.03068000E-03   8.15854000E-01 
SP   1    1.000000
   4.83456000E-01    1.00000000E+00   1.00000000E+00 
SP   1    1.000000
   1.45585000E-01    1.00000000E+00   1.00000000E+00 
SP   1    1.000000
   4.38000000E-02    1.00000000E+00   1.00000000E+00 
SP   1    1.000000
   1.31927711E-02    1.00000000E+00   1.00000000E+00 
D    1    1.000000
   6.26000000E-01    1.00000000E+00 

8    0
S    3    1.000000
   3.38650000E+01    2.54938000E-02 
   5.09479000E+00    1.90373000E-01 
   1.15879000E+00    8.52161000E-01 
S    1    1.000000
   3.25840000E-01    1.00000000E+00 
S    1    1.000000
   1.02741000E-01    1.00000000E+00 
S    1    1.000000
   3.60000000E-02    1.00000000E+00 
P    1    1.000000
   7.50000000E-01    1.00000000E+00 

9    0
S    1    1.000000
   4.56324000E+03    1.96665000E-03 
S    1    1.000000
   6.82024000E+02    1.52306000E-02 
S    1    1.000000
   1.54973000E+02    7.61269000E-02 
S    1    1.000000
   4.44553000E+01    2.60801000E-01 
S    1    1.000000
   1.30290000E+01    6.16462000E-01 
S    1    1.000000
   1.82773000E+00    2.21006000E-01 
SP   3    1.000000
   2.09642000E+01    1.14660000E-01   4.02487000E-02 
   4.80331000E+00    9.19999000E-01   2.37594000E-01 
   1.45933000E+00   -3.03068000E-03   8.15854000E-01 
SP   1    1.000000
   4.83456000E-01    1.00000000E+00   1.00000000E+00 
SP   1    1.000000
   1.45585000E-01    1.00000000E+00   1.00000000E+00 
SP   1    1.000000
   4.38000000E-02    1.00000000E+00   1.00000000E+00 
SP   1    1.000000
   1.31927711E-02    1.00000000E+00   1.00000000E+00 
D    1    1.000000
   6.26000000E-01    1.00000000E+00 

10    0
S    3    1.000000
   3.38650000E+01    2.54938000E-02 
   5.09479000E+00    1.90373000E-01 
   1.15879000E+00    8.52161000E-01 
S    1    1.000000
   3.25840000E-01    1.00000000E+00 
S    1    1.000000
   1.02741000E-01    1.00000000E+00 
S    1    1.000000
   3.60000000E-02    1.00000000E+00 
P    1    1.000000
   7.50000000E-01    1.00000000E+00 

11    0
S    1    1.000000
   4.56324000E+03    1.96665000E-03 
S    1    1.000000
   6.82024000E+02    1.52306000E-02 
S    1    1.000000
   1.54973000E+02    7.61269000E-02 
S    1    1.000000
   4.44553000E+01    2.60801000E-01 
S    1    1.000000
   1.30290000E+01    6.16462000E-01 
S    1    1.000000
   1.82773000E+00    2.21006000E-01 
SP   3    1.000000
   2.09642000E+01    1.14660000E-01   4.02487000E-02 
   4.80331000E+00    9.19999000E-01   2.37594000E-01 
   1.45933000E+00   -3.03068000E-03   8.15854000E-01 
SP   1    1.000000
   4.83456000E-01    1.00000000E+00   1.00000000E+00 
SP   1    1.000000
   1.45585000E-01    1.00000000E+00   1.00000000E+00 
SP   1    1.000000
   4.38000000E-02    1.00000000E+00   1.00000000E+00 
SP   1    1.000000
   1.31927711E-02    1.00000000E+00   1.00000000E+00 
D    1    1.000000
   6.26000000E-01    1.00000000E+00 

12    0
S    6    1.000000
   1.05819000E+05    7.38000000E-04 
   1.58720000E+04    5.71800000E-03 
   3.61965000E+03    2.94950000E-02 
   1.03080000E+03    1.17286000E-01 
   3.39908000E+02    3.62949000E-01 
   1.24538000E+02    5.84149000E-01 
S    3    1.000000
   1.24538000E+02    1.34177000E-01 
   4.95135000E+01    6.24250000E-01 
   2.08056000E+01    2.91756000E-01 
S    1    1.000000
   6.58346000E+00    1.00000000E+00 
S    1    1.000000
   2.56468000E+00    1.00000000E+00 
S    1    1.000000
   5.59763000E-01    1.00000000E+00 
S    1    1.000000
   1.83273000E-01    1.00000000E+00 
P    5    1.000000
   5.89776000E+02    2.39100000E-03 
   1.39849000E+02    1.85040000E-02 
   4.51413000E+01    8.13770000E-02 
   1.68733000E+01    2.21552000E-01 
   6.74110000E+00    7.72569000E-01 
P    2    1.000000
   6.74110000E+00   -1.57224400E+00 
   2.77152000E+00    9.92389000E-01 
P    1    1.000000
   1.02387000E+00    1.00000000E+00 
P    1    1.000000
   3.81368000E-01    1.00000000E+00 
P    1    1.000000
   1.09437000E-01    1.00000000E+00 
SP   1    1.000000
   4.83000000E-02    1.00000000E+00   1.00000000E+00 
SP   1    1.000000
   1.45481928E-02    1.00000000E+00   1.00000000E+00 
D    1    1.000000
   7.50000000E-01    1.00000000E+00 

[MO]
Sym=X
Ene= -0.004374
Spin=Alpha
Occup=1
     1   -1.165727788000e-05
     2    7.485284548805e-06
     3   -1.097147631566e-04
     4   -1.044061965867e-04
     5   -1.689895646647e-06
     6   -1.454674210841e-16
     7   -3.723431200506e-05
     8   -7.573776569644e-05
     9   -5.864178062366e-04
    10   -2.924766373461e-03
    11   -1.004436057037e-02
    12   -2.371005296166e-02
    13   -8.665234957532e-03
    14   -3.183071919145e-02
    15    4.433164749930e-06
    16    3.308881996988e-16
    17   -9.149526325054e-05
    18    1.014772605652e-04
    19   -6.217669603387e-05
    20   -1.003980618749e-15
    21   -4.235777057248e-04
    22   -1.843532894243e-04
    23   -3.517747976752e-05
    24    3.241817091231e-15
    25    2.720521993928e-04
    26    7.942238282117e-04
    27   -1.080186811042e-05
    28   -6.782796508947e-15
    29    5.774590974122e-06
    30    2.504631955854e-05
    31    7.878580763657e-05
    32    6.432588264781e-14
    33    4.112988645174e-05
    34    2.090356205998e-04
    35   -3.267848910271e-05
    36   -1.159645753473e-16
    37   -1.129578391322e-04
    38   -2.280551307242e-16
    39    7.807202932536e-04
    40    6.044064250212e-03
    41    3.015014430986e-02
    42    1.035166746099e-01
    43    2.445400443096e-01
    44    8.933835366038e-02
    45    3.273899383279e-01
    46   -3.991810224331e-05
    47   -8.068698304967e-16
    48   -1.626170331772e-06
    49    1.068074280542e-03
    50    1.203389277446e-05
    51    1.961732665028e-15
    52    3.619890380058e-05
    53    9.293410023505e-04
    54    3.263759449664e-04
    55   -3.468250391804e-15
    56    1.136376681107e-04
    57   -9.262428178693e-04
    58   -1.854100139580e-04
    59    1.427964604490e-14
    60    3.944622019450e-05
    61   -5.737135670674e-05
    62   -1.335077112672e-04
    63   -1.292215064116e-13
    64   -3.383228088559e-05
    65    1.023918853590e-04
    66   -2.645543605341e-05
    67    6.975942616252e-16
    68    7.949217719039e-05
    69   -4.963472195393e-16
    70    2.745940827612e-04
    71    3.109966129418e-04
    72    1.953723529825e-05
    73   -9.794706940097e-05
    74    1.962002852085e-04
    75    1.308153252940e-16
    76    1.202767675336e-04
    77    7.015364605647e-12
    78    5.431038655030e-11
    79    2.709232751664e-10
    80    9.301222830632e-10
    81    2.197321534624e-09
    82    7.974227282943e-10
    83    2.939652303693e-09
    84   -1.432569349144e-04
    85   -4.977998883854e-16
    86    1.884673686149e-12
    87    3.763991746045e-11
    88   -7.501839265868e-04
    89    4.433964523658e-16
    90    2.295269713344e-11
    91    1.423774811409e-11
    92    3.774917430283e-04
    93    3.992459113792e-16
    94    6.610274024450e-12
    95    2.291010453148e-10
    96   -4.619681060656e-04
    97   -1.477968997698e-14
    98    4.465902650979e-11
    99    1.292791700211e-11
   100    1.362240522482e-04
   101    1.351035996487e-13
   102   -1.290066043862e-12
   103   -7.026519628289e-12
   104   -4.262092844832e-04
   105   -2.129179215513e-16
   106    6.612772783237e-12
   107   -6.521969058449e-16
   108    4.349266249061e-12
   109    1.267678227839e-11
   110   -8.973943322432e-12
   111    1.133811143715e-11
   112   -6.365325465370e-05
   113   -5.510272502697e-16
   114    7.239954292429e-12
   115   -7.807202353575e-04
   116   -6.044063802001e-03
   117   -3.015014207402e-02
   118   -1.035166669334e-01
   119   -2.445400261760e-01
   120   -8.933834704750e-02
   121   -3.273899140512e-01
   122   -3.991809790602e-05
   123    2.397221691977e-15
   124    1.626179029435e-06
   125   -1.068074146084e-03
   126    1.203386677358e-05
   127   -1.388438142157e-15
   128   -3.619886809407e-05
   129   -9.293410344767e-04
   130    3.263759760532e-04
   131    6.178069874192e-16
   132   -1.136376906549e-04
   133    9.262427474154e-04
   134   -1.854098903878e-04
   135    7.881719750698e-15
   136   -3.944621175609e-05
   137    5.737134434884e-05
   138   -1.335077108902e-04
   139   -1.077561934654e-13
   140    3.383229122399e-05
   141   -1.023918634977e-04
   142   -2.645542452728e-05
   143    1.076774745068e-15
   144   -7.949217778280e-05
   145    3.120650119420e-16
   146   -2.745940583105e-04
   147   -3.109965800952e-04
   148   -1.953727857309e-05
   149    9.794700706565e-05
   150    1.962002638517e-04
   151   -5.284618430063e-16
   152   -1.202767536460e-04
   153    7.573783952732e-05
   154    5.864183778236e-04
   155    2.924769224692e-03
   156    1.004437035987e-02
   157    2.371007608598e-02
   158    8.665243394689e-03
   159    3.183075015288e-02
   160    4.433160960308e-06
   161   -1.233303559309e-16
   162    9.149526362963e-05
   163   -1.014771094484e-04
   164   -6.217671396477e-05
   165   -3.070633092959e-16
   166    4.235776623018e-04
   167    1.843533831725e-04
   168   -3.517752519727e-05
   169   -1.310162773849e-15
   170   -2.720522175628e-04
   171   -7.942240365926e-04
   172   -1.080183442622e-05
   173   -2.512502477023e-16
   174   -5.774487773298e-06
   175   -2.504634670837e-05
   176    7.878581841581e-05
   177    4.421761773940e-14
   178   -4.112993537541e-05
   179   -2.090355969447e-04
   180   -3.267849547100e-05
   181    2.577219814031e-16
   182    1.129578394652e-04
   183    7.409213011247e-16
   184    1.165730608474e-05
   185   -7.485235963492e-06
   186    1.097147465713e-04
   187    1.044061601214e-04
   188   -1.689919743100e-06
   189    4.670487852395e-16
   190    3.723429538363e-05
   191   -8.484192764647e-13
   192   -6.569014074777e-12
   193   -3.278258688213e-11
   194   -1.125543738546e-10
   195   -2.664570004348e-10
   196   -1.068788521923e-10
   197   -3.574019947781e-10
   198    4.650636866758e-05
   199   -3.917681212496e-16
   200   -4.770494347831e-12
   201    4.435606909848e-11
   202   -1.332319194363e-04
   203   -4.908669501894e-16
   204   -1.858002455771e-11
   205   -6.121427437599e-11
   206    1.884956554575e-04
   207    8.755020674951e-17
   208    3.568614696157e-11
   209    7.620805118504e-11
   210    3.225760275990e-04
   211   -4.837310395580e-15
   212   -1.544103578239e-10
   213   -3.524138457851e-13
   214   -7.716051437205e-05
   215    1.782204399387e-14
   216    4.204388627345e-11
   217   -6.962258987578e-12
   218    7.957477352010e-05
   219    2.741219727660e-16
   220    7.599309370083e-12
   221    3.651298529663e-16
   222    5.649143504330e-14
   223    4.362964993819e-14
   224    6.669579845401e-13
   225   -2.072096824260e-12
   226    3.670417105935e-12
   227   -1.225310367562e-11
   228   -1.761034789217e-06
   229    6.319495765603e-15
   230   -1.384583018377e-13
   231   -2.196845606127e-06
   232    1.701838413800e-15
   233    1.308820821859e-13
   234    7.785482023764e-06
   235    7.835704611386e-16
   236    6.533992532902e-13
   237   -2.568436748359e-05
   238   -2.291371211552e-16
   239   -1.399351808917e-12
   240    1.528029022768e-05
   241   -5.864713658325e-16
   242    8.281033330076e-12
   243    1.028230075625e-10
   244   -5.306255832862e-05
   245    4.257786361380e-15
   246   -2.373605990645e-11
   247    3.545197350446e-11
   248    2.147981829120e-05
   249   -2.937842028583e-14
   250   -1.704137721371e-11
   251    1.406635349867e-12
   252    5.005566051112e-06
   253    4.886495381902e-17
   254   -1.434678203373e-13
   255    2.419702513449e-16
Sym=X
Ene= -0.249111
Spin=Alpha
Occup=1
     1    2.778501351600e-04
     2    4.730855612777e-04
     3    4.214106860327e-05
     4   -3.068480283734e-04
     5    2.318070253425e-04
     6   -6.563891131995e-17
     7   -1.308739506234e-04
     8    7.813855993208e-04
     9    6.049267243857e-03
    10    3.017569483768e-02
    11    1.036059488530e-01
    12    2.447364790560e-01
    13    8.935736380410e-02
    14    3.276887789894e-01
    15    4.084479080109e-05
    16    1.008143960387e-15
    17    5.556075200416e-05
    18    1.288487336220e-03
    19    1.731367969215e-04
    20   -2.595229818413e-15
    21   -1.001435150778e-04
    22    1.701035693874e-03
    23    7.389136066455e-04
    24    8.135540405993e-16
    25   -5.408737579555e-04
    26   -1.767366927166e-03
    27   -1.413372461666e-04
    28   -4.242183434303e-14
    29    8.791130156562e-04
    30   -2.157116022355e-04
    31   -9.868518833955e-05
    32    6.290771667598e-13
    33   -2.470923731103e-04
    34    7.512818532039e-05
    35    7.321867139451e-05
    36    3.929805692108e-16
    37    9.054534914678e-05
    38   -1.194389415965e-16
    39    6.722635192513e-05
    40    5.204273607063e-04
    41    2.596123708858e-03
    42    8.912799453739e-03
    43    2.105536216310e-02
    44    7.620759306884e-03
    45    2.816155140742e-02
    46   -6.036995801211e-06
    47   -7.602021450646e-16
    48    8.465374317119e-05
    49    5.020011507140e-04
    50    2.383948701524e-05
    51   -7.912475242019e-16
    52    4.407722540418e-04
    53   -1.294085108543e-03
    54   -6.190820687517e-04
    55   -3.964058003876e-15
    56   -5.702562012595e-04
    57   -3.616224411069e-04
    58   -1.042336902533e-03
    59    2.977016732154e-14
    60    1.934435238314e-04
    61   -1.146154753422e-04
    62    6.343618331365e-06
    63   -5.158337224723e-13
    64    2.473748417341e-05
    65    2.272241857436e-04
    66   -1.036597659849e-05
    67   -1.198919269283e-16
    68   -1.071721589338e-04
    69   -4.379110778377e-16
    70    5.667817653804e-05
    71    3.795486914143e-05
    72   -4.175438223740e-04
    73   -4.613676066763e-04
    74    5.029181765875e-05
    75   -7.468441715673e-16
    76    6.424478599859e-05
    77   -2.977530070298e-06
    78   -2.301119582117e-05
    79   -1.150862744202e-04
    80   -3.940982984663e-04
    81   -9.430240517672e-04
    82   -4.131941793240e-04
    83   -1.221429298680e-03
    84    5.502392041582e-12
    85   -4.581461870295e-16
    86   -1.903917152773e-05
    87    1.691932281537e-04
    88    6.460897333849e-11
    89   -2.026481875803e-15
    90    2.040534426069e-04
    91    8.719786768915e-04
    92   -3.996162079353e-11
    93   -1.776703766914e-15
    94    5.724312797198e-04
    95    3.681307693016e-03
    96    5.983441213474e-11
    97   -2.816605745730e-14
    98    8.190203255604e-04
    99    1.593544225373e-04
   100   -1.157448743121e-11
   101    5.018884237075e-13
   102    2.150336482362e-05
   103   -2.516097293647e-05
   104    3.763361797383e-11
   105    9.092687752735e-17
   106    2.225844234361e-05
   107   -1.646134939024e-16
   108    6.257581442351e-06
   109    1.560709975987e-04
   110    6.679972740711e-05
   111    2.869692161926e-04
   112    5.896233239198e-12
   113   -1.919008035559e-16
   114    3.948630814671e-05
   115    6.722644490896e-05
   116    5.204280805375e-04
   117    2.596127299780e-03
   118    8.912811782145e-03
   119    2.105539129077e-02
   120    7.620769949943e-03
   121    2.816159038449e-02
   122    6.036998755359e-06
   123   -1.518411603693e-15
   124    8.465376046550e-05
   125    5.020013145036e-04
   126   -2.383947593565e-05
   127   -5.127986167321e-16
   128    4.407723366142e-04
   129   -1.294085015768e-03
   130    6.190820422669e-04
   131   -5.344827058184e-15
   132   -5.702562282274e-04
   133   -3.616226065460e-04
   134    1.042336967377e-03
   135    3.325284599520e-14
   136    1.934435695561e-04
   137   -1.146154882620e-04
   138   -6.343594658053e-06
   139   -5.357012872349e-13
   140    2.473746596178e-05
   141    2.272242388151e-04
   142    1.036597413238e-05
   143    8.728547661871e-17
   144   -1.071721703875e-04
   145    3.637811523532e-16
   146    5.667821243570e-05
   147    3.795491201377e-05
   148   -4.175438395091e-04
   149   -4.613676374630e-04
   150   -5.029184484709e-05
   151   -3.996224527619e-16
   152    6.424480971170e-05
   153    7.813857450562e-04
   154    6.049268372079e-03
   155    3.017570046576e-02
   156    1.036059681759e-01
   157    2.447365247058e-01
   158    8.935738048680e-02
   159    3.276888400898e-01
   160   -4.084480837530e-05
   161    6.982900853072e-16
   162    5.556075654967e-05
   163    1.288487565816e-03
   164   -1.731367680256e-04
   165   -2.521030431557e-15
   166   -1.001435966896e-04
   167    1.701035879802e-03
   168   -7.389136950432e-04
   169    2.438848046425e-15
   170   -5.408737185458e-04
   171   -1.767367074150e-03
   172    1.413372660812e-04
   173   -4.612880999126e-14
   174    8.791129768474e-04
   175   -2.157116035922e-04
   176    9.868517701879e-05
   177    6.491072468307e-13
   178   -2.470923516641e-04
   179    7.512823909924e-05
   180   -7.321866556397e-05
   181    9.413110011774e-17
   182    9.054534489353e-05
   183    1.427867279576e-16
   184    2.778501876812e-04
   185    4.730856191032e-04
   186    4.214107164996e-05
   187   -3.068480361081e-04
   188   -2.318070616123e-04
   189   -5.500125319472e-17
   190   -1.308739802183e-04
   191   -1.335985569255e-05
   192   -1.034702629057e-04
   193   -5.160205004283e-04
   194   -1.773332283496e-03
   195   -4.185147986469e-03
   196   -1.661653390316e-03
   197   -5.675068344324e-03
   198    1.064625275520e-11
   199    1.367891501551e-16
   200   -1.084791989733e-04
   201    7.844078944470e-04
   202    9.863454430204e-11
   203   -8.535575645672e-16
   204   -2.981253141976e-04
   205   -1.585524007962e-03
   206   -7.769614334669e-11
   207   -4.424877801066e-15
   208    9.095255473393e-04
   209    8.966518254170e-04
   210    5.211945670296e-11
   211    5.001511268181e-14
   212   -2.116587604418e-03
   213   -5.585754445297e-05
   214    7.943515959087e-12
   215   -7.712085844626e-13
   216    3.300921639745e-04
   217   -1.487542002301e-04
   218   -4.880406997078e-11
   219    3.008551063726e-16
   220    1.544601720202e-04
   221    1.559366341592e-16
   222    1.292623997777e-06
   223    1.762600372728e-06
   224    8.727661343471e-06
   225   -3.123047764667e-05
   226    4.683746936454e-05
   227   -2.409835242433e-04
   228    1.800286939927e-12
   229   -1.473059953000e-15
   230   -4.191672615057e-06
   231    1.044628251168e-12
   232   -1.035900091597e-15
   233    2.635111549036e-06
   234   -3.793295432332e-12
   235    1.241063624348e-16
   236    1.099787376113e-05
   237    6.835445245123e-12
   238    1.413738348104e-15
   239   -6.185682694835e-06
   240    8.300556766857e-14
   241   -5.808416436219e-15
   242    1.391600819933e-04
   243    1.350426702257e-03
   244   -1.299267338076e-12
   245    2.570452737975e-15
   246   -3.233702770615e-04
   247    7.187176054822e-04
   248   -3.819811352052e-12
   249    5.414175848029e-14
   250   -2.345831764381e-04
   251    2.643235940718e-05
   252   -2.933034714181e-12
   253   -1.628592448815e-16
   254   -7.422902652320e-07
   255    7.716179431506e-17
Sym=X
Ene= -0.558045
Spin=Alpha
Occup=1
     1   -2.733674846795e-04
     2   -2.911011937711e-04
     3   -7.264928835941e-05
     4   -2.502334438159e-05
     5   -1.856083275203e-04
     6   -3.374045762420e-17
     7    1.317613066694e-04
     8   -7.806807284027e-04
     9   -6.043740620207e-03
    10   -3.014862363770e-02
    11   -1.035110773708e-01
    12   -2.445314497311e-01
    13   -8.936406187167e-02
    14   -3.273436752222e-01
    15   -8.727047492588e-05
    16   -1.648703006592e-15
    17   -6.975828212235e-05
    18   -1.117601611570e-03
    19    1.155490632985e-04
    20    1.882863414943e-15
    21    1.996068542285e-04
    22   -1.038768424989e-03
    23   -4.690120160817e-04
    24   -2.137426821658e-15
    25   -6.102188695262e-05
    26    9.119898320950e-04
    27    1.734623355866e-05
    28    1.333560210520e-14
    29    1.415846058135e-04
    30    1.291384977356e-05
    31   -2.233789064867e-05
    32   -1.662815300253e-14
    33   -8.864428198450e-05
    34   -1.671768654257e-04
    35    1.301811791514e-05
    36    1.839244782354e-16
    37   -3.587858598074e-05
    38    3.855015817688e-16
    39   -7.548684061365e-05
    40   -5.843033089376e-04
    41   -2.915294720259e-03
    42   -1.000656691244e-02
    43   -2.365882961965e-02
    44   -8.652482874656e-03
    45   -3.157758747155e-02
    46   -5.258467940659e-06
    47   -4.896097592049e-16
    48   -8.885797589085e-05
    49   -2.892917530379e-04
    50    6.240687409626e-05
    51   -5.579836005135e-16
    52   -4.023046148876e-04
    53   -3.275488058233e-07
    54    3.272526767791e-05
    55    9.996615279529e-16
    56    1.968670327443e-04
    57    4.377873807155e-04
    58    2.896898514069e-04
    59   -1.332442790887e-14
    60   -2.355070248932e-04
    61    4.122791004072e-05
    62    5.686673613960e-05
    63    2.750334649340e-14
    64    7.457747260616e-05
    65   -2.180879451425e-04
    66   -2.603227142556e-05
    67   -2.152273219774e-17
    68    9.882001831320e-05
    69    2.167922538827e-16
    70   -4.280756456333e-05
    71   -5.955304669214e-05
    72    1.001481081303e-04
    73    1.208271621326e-04
    74   -3.839309603244e-05
    75   -1.791650348657e-16
    76   -5.944031406387e-05
    77   -1.234882541867e-11
    78   -9.559877222285e-11
    79   -4.768896131687e-10
    80   -1.637245979322e-09
    81   -3.867763835050e-09
    82   -1.402956188698e-09
    83   -5.174625157308e-09
    84   -1.695152768553e-05
    85    1.215455233861e-16
    86   -3.200375566520e-12
    87   -6.832985441770e-11
    88    2.754909675419e-04
    89    7.949178873751e-16
    90   -4.275135401992e-11
    91   -3.451161056586e-11
    92   -2.149993660410e-04
    93   -3.609291953379e-16
    94   -1.805874239660e-11
    95   -4.550192961440e-10
    96    4.204285752464e-04
    97    8.968266798066e-15
    98   -9.221902306398e-11
    99   -2.349496831931e-11
   100   -4.956200946130e-05
   101   -1.299809706712e-15
   102    1.463993604097e-12
   103    1.276933125524e-11
   104    1.660370474288e-04
   105    9.677394690024e-17
   106   -1.200160110846e-11
   107   -1.053284493387e-16
   108   -7.757520669227e-12
   109   -2.410794176285e-11
   110    1.475086075457e-11
   111   -2.523044491477e-11
   112    2.758977360876e-05
   113    1.981482729724e-17
   114   -1.324265489813e-11
   115    7.548673608983e-05
   116    5.843024997476e-04
   117    2.915290683722e-03
   118    1.000655305356e-02
   119    2.365879688163e-02
   120    8.652470936989e-03
   121    3.157754364331e-02
   122   -5.258475808067e-06
   123   -1.127196275615e-15
   124    8.885795885905e-05
   125    2.892915041376e-04
   126    6.240692075843e-05
   127   -9.588264390442e-16
   128    4.023045432883e-04
   129    3.276319180303e-07
   130    3.272519937558e-05
   131   -1.695184871583e-15
   132   -1.968669812209e-04
   133   -4.377872349433e-04
   134    2.896896060185e-04
   135   -5.374871539627e-15
   136    2.355070091811e-04
   137   -4.122788223503e-05
   138    5.686673428466e-05
   139   -2.315996063823e-14
   140   -7.457748878854e-05
   141    2.180879020828e-04
   142   -2.603229208077e-05
   143   -2.067716104111e-16
   144   -9.882001531934e-05
   145    3.403584137089e-17
   146    4.280751991599e-05
   147    5.955298767470e-05
   148   -1.001480223517e-04
   149   -1.208270392201e-04
   150   -3.839305706911e-05
   151   -1.014795702070e-16
   152    5.944028815650e-05
   153    7.806805827898e-04
   154    6.043739492922e-03
   155    3.014861801443e-02
   156    1.035110580638e-01
   157    2.445314041248e-01
   158    8.936404523049e-02
   159    3.273436141594e-01
   160   -8.727046746826e-05
   161    5.543315807080e-16
   162    6.975828047271e-05
   163    1.117601319329e-03
   164    1.155490984442e-04
   165   -1.168273445812e-15
   166   -1.996067749810e-04
   167    1.038768224416e-03
   168   -4.690119205149e-04
   169    1.849853321007e-15
   170    6.102193002533e-05
   171   -9.119894156431e-04
   172    1.734616372582e-05
   173    2.424166513276e-15
   174   -1.415848103211e-04
   175   -1.291379490724e-05
   176   -2.233791202619e-05
   177    3.537233127845e-14
   178    8.864436877389e-05
   179    1.671768218750e-04
   180    1.301813057701e-05
   181    4.713509689885e-16
   182    3.587858376496e-05
   183   -1.186011747613e-15
   184    2.733674294733e-04
   185    2.911010982716e-04
   186    7.264931777924e-05
   187    2.502342117425e-05
   188   -1.856082803852e-04
   189   -2.413779408273e-16
   190   -1.317612746819e-04
   191    1.673089643967e-12
   192    1.294736162086e-11
   193    6.461319740082e-11
   194    2.218516745226e-10
   195    5.250896528914e-10
   196    2.100649306533e-10
   197    7.047175571808e-10
   198    1.321099113054e-04
   199    2.314268417376e-16
   200    9.538312538391e-12
   201   -8.619113782139e-11
   202    9.365326981480e-04
   203    2.493516251342e-15
   204    3.575706524957e-11
   205    1.250105816972e-10