Q-Chem Developer Version!
                  Welcome to Q-Chem
     A Quantum Leap Into The Future Of Chemistry


 Q-Chem 5.1, Q-Chem, Inc., Pleasanton, CA (2018)

 Yihan Shao,  Zhengting Gan,  E. Epifanovsky,  A. T. B. Gilbert,  M. Wormit,  
 J. Kussmann,  A. W. Lange,  A. Behn,  Jia Deng,  Xintian Feng,  D. Ghosh,  
 M. Goldey,  P. R. Horn,  L. D. Jacobson,  I. Kaliman,  T. Kus,  A. Landau,  
 Jie Liu,  E. I. Proynov,  R. M. Richard,  R. P. Steele,  E. J. Sundstrom,  
 H. L. Woodcock III,  P. M. Zimmerman,  D. Zuev,  B. Albrecht,  E. Alguire,  
 S. A. Baeppler,  D. Barton,  Z. Benda,  Y. A. Bernard,  E. J. Berquist,  
 K. B. Bravaya,  H. Burton,  D. Casanova,  Chun-Min Chang,  Yunqing Chen,  
 A. Chien,  K. D. Closser,  M. P. Coons,  S. Coriani,  S. Dasgupta,  
 A. L. Dempwolff,  M. Diedenhofen,  Hainam Do,  R. G. Edgar,  Po-Tung Fang,  
 S. Faraji,  S. Fatehi,  Qingguo Feng,  K. D. Fenk,  J. Fosso-Tande,  
 Qinghui Ge,  A. Ghysels,  G. Gidofalvi,  J. Gomes,  J. Gonthier,  A. Gunina,  
 D. Hait,  M. W. D. Hanson-Heine,  P. H. P. Harbach,  A. W. Hauser,  
 J. E. Herr,  E. G. Hohenstein,  Z. C. Holden,  Kerwin Hui,  B. C. Huynh,  
 T.-C. Jagau,  Hyunjun Ji,  B. Kaduk,  K. Khistyaev,  Jaehoon Kim,  
 P. Klunzinger,  K. Koh,  D. Kosenkov,  L. Koulias,  T. Kowalczyk,  
 C. M. Krauter,  A. Kunitsa,  Ka Un Lao,  A. Laurent,  K. V. Lawler,  
 Joonho Lee,  D. Lefrancois,  S. Lehtola,  D. S. Levine,  Yi-Pei Li,  
 You-Sheng Lin,  Fenglai Liu,  E. Livshits,  A. Luenser,  P. Manohar,  
 E. Mansoor,  S. F. Manzer,  Shan-Ping Mao,  Yuezhi Mao,  N. Mardirossian,  
 A. V. Marenich,  T. Markovich,  L. A. Martinez-Martinez,  S. A. Maurer,  
 N. J. Mayhall,  S. C. McKenzie,  J.-M. Mewes,  A. F. Morrison,  
 J. W. Mullinax,  K. Nanda,  T. S. Nguyen-Beck,  R. Olivares-Amaya,  
 J. A. Parkhill,  T. M. Perrine,  F. Plasser,  P. Pokhilko,  S. Prager,  
 A. Prociuk,  E. Ramos,  D. R. Rehn,  F. Rob,  M. Schneider,  N. Sergueev,  
 S. M. Sharada,  S. Sharma,  D. W. Small,  T. Stauch,  T. Stein,  
 Yu-Chuan Su,  A. J. W. Thom,  A. Tkatchenko,  T. Tsuchimochi,  N. M. Tubman,  
 L. Vogt,  M. L. Vidal,  O. Vydrov,  M. A. Watson,  J. Wenzel,  
 M. de Wergifosse,  T. A. Wesolowski,  A. White,  J. Witte,  A. Yamada,  
 Jun Yang,  K. Yao,  S. Yeganeh,  S. R. Yost,  Zhi-Qiang You,  A. Zech,  
 Igor Ying Zhang,  Xing Zhang,  Yan Zhao,  Ying Zhu,  B. R. Brooks,  
 G. K. L. Chan,  C. J. Cramer,  M. S. Gordon,  W. J. Hehre,  A. Klamt,  
 M. W. Schmidt,  C. D. Sherrill,  D. G. Truhlar,  A. Aspuru-Guzik,  R. Baer,  
 A. T. Bell,  N. A. Besley,  Jeng-Da Chai,  A. E. DePrince, III,  
 R. A. DiStasio Jr.,  A. Dreuw,  B. D. Dunietz,  T. R. Furlani,  
 Chao-Ping Hsu,  Yousung Jung,  Jing Kong,  D. S. Lambrecht,  WanZhen Liang,  
 C. Ochsenfeld,  V. A. Rassolov,  L. V. Slipchenko,  J. E. Subotnik,  
 T. Van Voorhis,  J. M. Herbert,  A. I. Krylov,  P. M. W. Gill,  M. Head-Gordon

 Contributors to earlier versions of Q-Chem not listed above: 
 R. D. Adamson,  B. Austin,  J. Baker,  G. J. O. Beran,  K. Brandhorst,  
 S. T. Brown,  E. F. C. Byrd,  A. K. Chakraborty,  C.-L. Cheng,  
 Siu Hung Chien,  D. M. Chipman,  D. L. Crittenden,  H. Dachsel,  
 R. J. Doerksen,  A. D. Dutoi,  L. Fusti-Molnar,  W. A. Goddard III,  
 A. Golubeva-Zadorozhnaya,  S. R. Gwaltney,  G. Hawkins,  A. Heyden,  
 S. Hirata,  G. Kedziora,  F. J. Keil,  C. Kelley,  Jihan Kim,  R. A. King,  
 R. Z. Khaliullin,  P. P. Korambath,  W. Kurlancheek,  A. M. Lee,  M. S. Lee,  
 S. V. Levchenko,  Ching Yeh Lin,  D. Liotard,  R. C. Lochan,  I. Lotan,  
 P. E. Maslen,  N. Nair,  D. P. O'Neill,  D. Neuhauser,  E. Neuscamman,  
 C. M. Oana,  R. Olson,  B. Peters,  R. Peverati,  P. A. Pieniazek,  
 Y. M. Rhee,  J. Ritchie,  M. A. Rohrdanz,  E. Rosta,  N. J. Russ,  
 H. F. Schaefer III,  N. E. Schultz,  N. Shenvi,  A. C. Simmonett,  A. Sodt,  
 D. Stuck,  K. S. Thanthiriwatte,  V. Vanovschi,  Tao Wang,  A. Warshel,  
 C. F. Williams,  Q. Wu,  X. Xu,  W. Zhang

 Please cite Q-Chem as follows:
 Y. Shao et al., Mol. Phys. 113, 184-215 (2015)
 DOI: 10.1080/00268976.2014.952696

 Q-Chem 5.1.1 for Intel X86 EM64T Linux

 Parts of Q-Chem use Armadillo 8.300.2 (Tropical Shenanigans).
 http://arma.sourceforge.net/

 Q-Chem begins on Mon Dec 10 17:22:08 2018  


Host: 0

     Scratch files written to /work1/malop/qc_7535120.hnode2//
Input Ideriv = 0
Curr. Ideriv = -1
Max.  Ideriv = 0

Checking the input file for inconsistencies... 	...done.

--------------------------------------------------------------
User input:
--------------------------------------------------------------
$commen
RI-MP2/cc-pVTZ optimized geometry for neutral species 
NEXAFS
basis = 6-311(2+,+)G** (ucC)
$end

$molecule
+1 2
H      -2.1434404908     0.0000000000    -0.2235906397
C      -1.2132672529    -0.0000000000    -0.7727863601
C      -1.2050294832    -0.0000000000    -2.1658702173
H      -2.1443854307    -0.0000000000    -2.7014917948
C       0.0000000000    -0.0000000000    -2.8650776091
H       0.0000000000    -0.0000000000    -3.9458877158
C       1.2050294832    -0.0000000000    -2.1658702173
H       2.1443854307    -0.0000000000    -2.7014917948
C       1.2132672529    -0.0000000000    -0.7727863601
H       2.1434404908    -0.0000000000    -0.2235906397
C      -0.0000000000    -0.0000000000    -0.0899907575
Br     -0.0000000000     0.0000000000     1.7940097632
$end

$rem
   JOB_TYPE  =  SP
   BASIS  =  general
   METHOD  =  EOM-CCSD
   CVS_EE_STATES = [6,6,6,6]
   eom_preconv_singles = true
   n_frozen_core = 7
   cc_trans_prop = true
   use_libqints = 1   !use new int library (will be def in trunk)
   cc_memory = 100000
   EOM_DAVIDSON_MAX_ITER 200
   EOM_DAVIDSON_MAXVECTORS = 1000
   eom_davidson_convergence = 4
   eom_shift = 10000
$end

$basis
H    0
6-311(2+,+)G**
****
Br   0
6-311(2+,+)G**
****
C    0
S    1    1.000000
   4.56324000E+03    1.96665000E-03
S    1    1.000000
   6.82024000E+02    1.52306000E-02
S    1    1.000000
   1.54973000E+02    7.61269000E-02
S    1    1.000000
   4.44553000E+01    2.60801000E-01
S    1    1.000000
   1.30290000E+01    6.16462000E-01
S    1    1.000000
   1.82773000E+00    2.21006000E-01
SP   3    1.000000
   2.09642000E+01    1.14660000E-01   4.02487000E-02
   4.80331000E+00    9.19999000E-01   2.37594000E-01
   1.45933000E+00   -3.03068000E-03   8.15854000E-01
SP   1    1.000000
   4.83456000E-01    1.00000000E+00   1.00000000E+00
SP   1    1.000000
   1.45585000E-01    1.00000000E+00   1.00000000E+00
SP   1    1.000000
   4.38000000E-02    1.00000000E+00   1.00000000E+00
SP   1    1.000000
   1.31927711E-02    1.00000000E+00   1.00000000E+00
D    1    1.000000
   6.26000000E-01    1.00000000E+00
****
end

--------------------------------------------------------------

 Q-Chem warning in module forms1/BasisType.C, line 1761:

 Setting pure/cartesian flag to 2111 for general basis


 Requested basis set is non-standard
 There are 117 shells and 273 basis functions
MEM_TOTAL is adjusted to CC_MEMORY + MEM_STATIC!
 Total memory of 100192MB is distributed as follows: 
   QALLOC including MEM_STATIC uses 192MB
   MEM_STATIC is set to 192MB
   CCMAN JOB total memory use is  100000MB
 Warning: actual memory use might exceed 100192MB

 Total QAlloc Memory Limit    192 MB
 Mega-Array Size       188 MB
 MEM_STATIC part       192 MB
 ----------------------------------------------------------------
             Standard Nuclear Orientation (Angstroms)
    I     Atom           X                Y                Z
 ----------------------------------------------------------------
    1      H      -2.1434404908     0.0000000000    -0.2235906397
    2      C      -1.2132672529     0.0000000000    -0.7727863601
    3      C      -1.2050294832     0.0000000000    -2.1658702173
    4      H      -2.1443854307     0.0000000000    -2.7014917948
    5      C       0.0000000000     0.0000000000    -2.8650776091
    6      H       0.0000000000     0.0000000000    -3.9458877158
    7      C       1.2050294832    -0.0000000000    -2.1658702173
    8      H       2.1443854307    -0.0000000000    -2.7014917948
    9      C       1.2132672529    -0.0000000000    -0.7727863601
   10      H       2.1434404908    -0.0000000000    -0.2235906397
   11      C       0.0000000000     0.0000000000    -0.0899907575
   12      Br     -0.0000000000    -0.0000000000     1.7940097632
 ----------------------------------------------------------------
 Molecular Point Group                 C2v   NOp =  4
 Largest Abelian Subgroup              C2v   NOp =  4
 Nuclear Repulsion Energy =   432.5066877038 hartrees
 There are       38 alpha and       37 beta electrons

                       Distance Matrix (Angstroms)
             H (  1)   C (  2)   C (  3)   H (  4)   C (  5)   H (  6)
   C (  2)  1.080203
   C (  3)  2.157096  1.393108
   H (  4)  2.477901  2.141702  1.081333
   C (  5)  3.401733  2.418615  1.393193  2.150616
   H (  6)  4.295327  3.397144  2.149548  2.479296  1.080810
   C (  7)  3.871008  2.790850  2.410059  3.391972  1.393193  2.149548
   H (  8)  4.952317  3.872175  3.391972  4.288771  2.150616  2.479296
   C (  9)  3.401338  2.426535  2.790850  3.872175  2.418615  3.397144
   H ( 10)  4.286881  3.401338  3.871008  4.952317  3.401733  4.295327
   C ( 11)  2.147600  1.392202  2.400286  3.379101  2.775087  3.855897
   Br( 12)  2.943645  2.839095  4.139172  4.980755  4.659087  5.739897
             C (  7)   H (  8)   C (  9)   H ( 10)   C ( 11)
   H (  8)  1.081333
   C (  9)  1.393108  2.141702
   H ( 10)  2.157096  2.477901  1.080203
   C ( 11)  2.400286  3.379101  1.392202  2.147600
   Br( 12)  4.139172  4.980755  2.839095  2.943645  1.884001

 A cutoff of  1.0D-14 yielded   5718 shell pairs
 There are     34880 function pairs (     37255 Cartesian)

 -------------------------------------------------------
 OpenMP Integral Computing Module                       
 Release: version 1.0, May 2013, Q-Chem Inc. Pittsburgh 
 -------------------------------------------------------
 Integral Job Info:
 Integral job number is                      11
 Integral operator is                         1
 short-range coefficients                     0
 long-range coefficients              100000000
 Omega coefficients                           0
 if combine SR and LR in K                    0
 Integral screening is                        0
 Integral computing path is                   2
 max size of driver memory is            800000
 size of driver memory is                593474
 size of scratch memory is             29623520
 max col of scratch BK array               1296
 max len of scratch array in speh3          155
 max len of scratch index in speh4           18
 max int batch size is                      520
 min int batch size is                       52
 fixed nKL is                                45
 max L of basis functions is                  2
 order of int derivative is                   0
 number of shells is                        117
 number of basis is                         282
 number of cartesian basis is               282
 number of contracted shell pairs          5718
 number of primitive shell pairs           8629
 maxK2 (contraction) of shell pair           36
 max number of K2 of shell pair               1
 max number of CS2 of shell pair           1561
 max number of PS2 of shell pair           1561
 mem total for path MDJ                  548620
 -------------------------------------------------------
 Smallest overlap matrix eigenvalue = 9.84E-09
 Linear dependence detected in AO basis
 Tighter screening thresholds may be required for diffuse basis sets
 Use S2THRESH > 14 and THRESH = 14 in case of SCF convergence issues
 Number of orthogonalized atomic orbitals = 266
 Maximum deviation from orthogonality = 3.739E-11

 Scale SEOQF with 1.000000e-01/1.000000e-01/1.000000e-01

 Standard Electronic Orientation quadrupole field applied
 Nucleus-field energy     =    -0.0000000255 hartrees
 Guess MOs from core Hamiltonian diagonalization

 -----------------------------------------------------------------------
  General SCF calculation program by
  Eric Jon Sundstrom, Paul Horn, Yuezhi Mao, Dmitri Zuev, Alec White,
  David Stuck, Shaama M.S., Shane Yost, Joonho Lee, David Small,
  Daniel Levine, Susi Lehtola, Hugh Burton, Evgeny Epifanovsky
 -----------------------------------------------------------------------
 Hartree-Fock
 A unrestricted SCF calculation will be
 performed using DIIS
 SCF converges when DIIS error is below 1.0e-08
 ---------------------------------------
  Cycle       Energy         DIIS error
 ---------------------------------------
    1   -2392.5369716148      2.76e-01  
    2   -2199.5969658040      8.62e-02  
    3   -2243.8142428761      8.43e-02  
    4   -2745.4784969484      3.60e-02  
    5   -2756.5780482795      2.57e-02  
    6   -2783.4232538164      1.89e-02  
    7   -2794.0661301104      1.07e-02  
    8   -2797.7737477418      8.34e-03  
    9   -2802.1120930392      1.67e-03  
   10   -2802.2221184381      5.46e-04  
   11   -2802.2388471850      2.01e-04  
   12   -2802.2417039725      9.00e-05  
   13   -2802.2428850796      5.46e-05  
   14   -2802.2436040032      4.04e-05  
   15   -2802.2440861496      2.56e-05  
   16   -2802.2443616700      1.60e-05  
   17   -2802.2444568459      1.47e-05  
   18   -2802.2445446156      1.36e-05  
   19   -2802.2446725092      1.20e-05  
   20   -2802.2449177311      8.57e-06  
   21   -2802.2450290304      3.95e-06  
   22   -2802.2450326175      1.81e-06  
   23   -2802.2450352579      8.33e-07  
   24   -2802.2450354765      4.19e-07  
   25   -2802.2450355644      1.54e-07  
   26   -2802.2450355714      5.78e-08  
   27   -2802.2450355721      2.64e-08  
   28   -2802.2450355725      1.15e-08  
   29   -2802.2450355726      6.59e-09  Convergence criterion met
 ---------------------------------------
 SCF time:   CPU 845.83s  wall 90.00s 
<S^2> =          0.931732397
 SCF   energy in the final basis set =    -2802.2450355726
 Total energy in the final basis set =    -2802.2450355726


 ------------------------------------------------------------------------------

   CCMAN2: suite of methods based on coupled cluster
           and equation of motion theories.

   Components:
   * libvmm-1.3-trunk
     by Evgeny Epifanovsky, Ilya Kaliman.
   * libtensor-2.5-trunk
     by Evgeny Epifanovsky, Michael Wormit, Dmitry Zuev, Sam Manzer, 
        Ilya Kaliman.
   * libcc-2.5-trunk
     by Evgeny Epifanovsky, Arik Landau, Tomasz Kus, Kirill Khistyaev, 
        Dmitry Zuev, Prashant Manohar, Xintian Feng, Anna Krylov, 
        Matthew Goldey, Alec White, Thomas Jagau, Kaushik Nanda, 
        Anastasia Gunina, Alexander Kunitsa, Joonho Lee.

   CCMAN original authors:
   Anna I. Krylov, C. David Sherrill, Steven R. Gwaltney,
   Edward F. C. Byrd (2000)
   Sergey V. Levchenko, Lyudmila V. Slipchenko, Tao Wang,
   Ana-Maria C. Cristian (2003)
   Piotr A. Pieniazek, C. Melania Oana, Evgeny Epifanovsky (2007)
   Prashant Manohar (2009)

 ------------------------------------------------------------------------------


 Allocating and initializing 100000MB of RAM...
 Calculation will run on 10 cores.


 Alpha MOs, Unrestricted
 -- Occupied --                  
-490.24  -65.37  -58.73  -58.73  -58.73  -11.56  -11.48  -11.47
  1 A1    2 A1    3 A1    1 B2    1 B1    4 A1    5 A1    2 B1                 
-11.473 -11.454 -11.454 -10.050  -7.663  -7.658  -7.653  -3.404
  6 A1    3 B1    7 A1    8 A1    9 A1    2 B2    4 B1   10 A1                 
 -3.401  -3.397  -3.389  -3.389  -1.413  -1.300  -1.246  -1.199
  3 B2    5 B1    1 A2   11 A1   12 A1   13 A1    6 B1   14 A1                 
 -1.062  -1.032  -0.922  -0.866  -0.844  -0.809  -0.793  -0.774
  7 B1   15 A1   16 A1    8 B1   17 A1    9 B1   18 A1    4 B2                 
 -0.723  -0.703  -0.656  -0.614  -0.581  -0.560
 10 B1   19 A1    5 B2   11 B1    6 B2    2 A2                                 
 -- Virtual --                   
 -0.123  -0.086  -0.084  -0.069  -0.068  -0.064  -0.061  -0.051
  7 B2   20 A1    3 A2   21 A1   12 B1    8 B2   22 A1   23 A1                 
 -0.048  -0.045  -0.045  -0.042  -0.031  -0.029  -0.026  -0.026
 13 B1    4 A2    9 B2   24 A1   25 A1   14 B1   26 A1   10 B2                 
 -0.024  -0.023  -0.021  -0.020  -0.013  -0.011  -0.007  -0.005
 27 A1   15 B1    5 A2   11 B2   28 A1   16 B1   29 A1   17 B1                 
 -0.003  -0.003  -0.003   0.008   0.022   0.028   0.034   0.039
 30 A1   12 B2   18 B1   31 A1   19 B1   32 A1   13 B2   14 B2                 
  0.048   0.053   0.054   0.058   0.064   0.067   0.075   0.084
  6 A2   20 B1   33 A1   34 A1   35 A1   15 B2   21 B1   16 B2                 
  0.086   0.092   0.093   0.102   0.102   0.103   0.109   0.115
 36 A1   22 B1    7 A2   23 B1   37 A1   17 B2   38 A1   24 B1                 
  0.127   0.129   0.135   0.150   0.155   0.165   0.167   0.177
 39 A1   40 A1   25 B1   41 A1   26 B1   18 B2   42 A1   27 B1                 
  0.191   0.208   0.224   0.243   0.253   0.261   0.270   0.325
 43 A1   28 B1   44 A1   29 B1   45 A1   30 B1   46 A1   47 A1                 
  0.335   0.346   0.357   0.436   0.436   0.451   0.472   0.474
 31 B1   48 A1   32 B1   33 B1   49 A1   19 B2   50 A1   34 B1                 
  0.521   0.536   0.542   0.550   0.553   0.560   0.571   0.575
 20 B2   51 A1   35 B1   21 B2   52 A1   36 B1    8 A2   53 A1                 
  0.597   0.599   0.602   0.624   0.644   0.679   0.689   0.718
  9 A2   22 B2   37 B1   54 A1   10 A2   23 B2   55 A1   24 B2                 
  0.723   0.734   0.749   0.752   0.766   0.791   0.829   0.842
 56 A1   38 B1   57 A1   39 B1   58 A1   59 A1   40 B1   60 A1                 
  0.886   0.888   0.897   0.904   0.910   0.930   0.981   0.999
 61 A1   41 B1   62 A1   42 B1   63 A1   43 B1   44 B1   25 B2                 
  1.003   1.005   1.090   1.098   1.106   1.131   1.160   1.283
 11 A2   64 A1   65 A1   45 B1   12 A2   26 B2   13 A2   66 A1                 
  1.299   1.408   1.522   1.563   1.587   1.607   1.624   1.630
 27 B2   67 A1   46 B1   68 A1   47 B1   69 A1   14 A2   28 B2                 
  1.669   1.710   1.715   1.737   1.783   1.812   1.850   1.913
 29 B2   70 A1   48 B1   71 A1   49 B1   30 B2   15 A2   50 B1                 
  1.945   1.991   2.005   2.024   2.038   2.042   2.057   2.118
 72 A1   16 A2   31 B2   51 B1   73 A1   52 B1   32 B2   74 A1                 
  2.130   2.141   2.164   2.171   2.250   2.386   2.414   2.426
 75 A1   53 B1   17 A2   33 B2   54 B1   34 B2   76 A1   18 A2                 
  2.471   2.537   2.597   2.606   2.653   2.730   2.772   2.805
 55 B1   77 A1   56 B1   78 A1   57 B1   79 A1   80 A1   81 A1                 
  2.826   2.837   2.842   2.844   2.857   2.952   2.955   2.983
 58 B1   82 A1   35 B2   83 A1   59 B1   84 A1   36 B2   19 A2                 
  2.992   3.046   3.081   3.117   3.250   3.300   3.345   3.532
 60 B1   37 B2   20 A2   61 B1   38 B2   85 A1   62 B1   63 B1                 
  3.573   3.693   3.713   3.805   3.919   4.182   4.232   4.295
 86 A1   64 B1   87 A1   88 A1   89 A1   65 B1   90 A1   91 A1                 
  4.302   4.351   4.402   4.427   4.585   4.752   4.897   5.039
 66 B1   21 A2   92 A1   39 B2   67 B1   93 A1   94 A1   68 B1                 
  5.216   5.232   5.529   5.568   5.965   7.186   8.046   8.146
 95 A1   69 B1   96 A1   70 B1   97 A1   98 A1   40 B2   71 B1                 
  8.242  20.376  20.467  20.497  20.601  20.643  20.908  49.415
 99 A1  100 A1  101 A1   72 B1  102 A1   73 B1  103 A1  104 A1                 
 79.947  80.040  80.072  80.158  80.196  80.397 293.727 293.822
105 A1  106 A1   74 B1  107 A1   75 B1  108 A1   41 B2   76 B1                 
293.942 321.790 321.879 321.909 321.980 322.014 322.1761028.387
109 A1  110 A1  111 A1   77 B1  112 A1   78 B1  113 A1  114 A1                 
*******1431.4441431.4711431.5301431.5611431.6958749.5968749.677
115 A1  116 A1   79 B1  117 A1   80 B1  118 A1  119 A1  120 A1                 
*******8749.7468749.7738749.881
 81 B1  121 A1   82 B1  122 A1                                                 

 Beta MOs, Unrestricted
 -- Occupied --                  
-490.24  -65.37  -58.73  -58.73  -58.73  -11.56  -11.47  -11.47
  1 A1    2 A1    3 A1    1 B1    1 B2    4 A1    2 B1    5 A1                 
-11.465 -11.461 -11.461 -10.049  -7.663  -7.653  -7.652  -3.403
  6 A1    3 B1    7 A1    8 A1    9 A1    4 B1    2 B2   10 A1                 
 -3.399  -3.397  -3.387  -3.387  -1.386  -1.277  -1.244  -1.169
  3 B2    5 B1    1 A2   11 A1   12 A1   13 A1    6 B1   14 A1                 
 -1.056  -1.019  -0.915  -0.860  -0.839  -0.809  -0.783  -0.720
  7 B1   15 A1   16 A1    8 B1   17 A1    9 B1   18 A1   10 B1                 
 -0.701  -0.690  -0.611  -0.599  -0.564
 19 A1    4 B2   11 B1    5 B2    2 A2                                         
 -- Virtual --                   
 -0.257  -0.086  -0.068  -0.068  -0.065  -0.065  -0.058  -0.054
  6 B2   20 A1   12 B1   21 A1    7 B2    3 A2   22 A1    8 B2                 
 -0.051  -0.048  -0.044  -0.040  -0.037  -0.031  -0.029  -0.025
 23 A1   13 B1    4 A2   24 A1    9 B2   25 A1   14 B1   26 A1                 
 -0.024  -0.024  -0.023  -0.020  -0.019  -0.012  -0.011  -0.007
 10 B2   27 A1   15 B1    5 A2   11 B2   28 A1   16 B1   29 A1                 
 -0.005  -0.003  -0.003  -0.003   0.009   0.023   0.029   0.032
 17 B1   18 B1   12 B2   30 A1   31 A1   19 B1   32 A1   13 B2                 
  0.048   0.049   0.053   0.056   0.059   0.066   0.075   0.077
 14 B2    6 A2   20 B1   33 A1   34 A1   35 A1   21 B1   15 B2                 
  0.086   0.091   0.096   0.098   0.102   0.106   0.110   0.111
 36 A1   22 B1    7 A2   16 B2   23 B1   37 A1   17 B2   38 A1                 
  0.115   0.129   0.130   0.135   0.152   0.155   0.168   0.177
 24 B1   39 A1   40 A1   25 B1   41 A1   26 B1   42 A1   27 B1                 
  0.185   0.192   0.208   0.227   0.247   0.260   0.261   0.279
 18 B2   43 A1   28 B1   44 A1   29 B1   45 A1   30 B1   46 A1                 
  0.326   0.334   0.350   0.357   0.437   0.439   0.459   0.474
 47 A1   31 B1   48 A1   32 B1   49 A1   33 B1   19 B2   34 B1                 
  0.479   0.539   0.551   0.555   0.555   0.564   0.570   0.583
 50 A1   51 A1   35 B1   36 B1   20 B2   21 B2   52 A1    8 A2                 
  0.586   0.598   0.604   0.626   0.635   0.647   0.683   0.700
 53 A1    9 A2   37 B1   54 A1   22 B2   10 A2   23 B2   55 A1                 
  0.726   0.736   0.737   0.751   0.754   0.771   0.797   0.829
 56 A1   38 B1   24 B2   57 A1   39 B1   58 A1   59 A1   40 B1                 
  0.849   0.888   0.888   0.905   0.905   0.917   0.932   0.987
 60 A1   61 A1   41 B1   42 B1   62 A1   63 A1   43 B1   44 B1                 
  1.006   1.012   1.029   1.094   1.100   1.109   1.152   1.177
 25 B2   64 A1   11 A2   65 A1   45 B1   12 A2   26 B2   13 A2                 
  1.286   1.319   1.417   1.524   1.572   1.588   1.614   1.633
 66 A1   27 B2   67 A1   46 B1   68 A1   47 B1   69 A1   28 B2                 
  1.635   1.681   1.709   1.719   1.748   1.792   1.817   1.850
 14 A2   29 B2   48 B1   70 A1   71 A1   49 B1   30 B2   15 A2                 
  1.912   1.947   2.009   2.012   2.021   2.043   2.048   2.072
 50 B1   72 A1   16 A2   31 B2   51 B1   52 B1   73 A1   32 B2                 
  2.122   2.141   2.147   2.167   2.181   2.251   2.393   2.415

 Occupation and symmetry of molecular orbitals

 Point group: C2v (4 irreducible representations).

                           A1   A2   B1   B2    All 
 ----------------------------------------------------
 All molecular orbitals:
  - Alpha                  122  21   82   41    266 
  - Beta                   122  21   82   41    266 
 ----------------------------------------------------
 Alpha orbitals:
  - Frozen occupied        5    0    1    1     7   
  - Active occupied        14   2    10   5     31  
  - Active virtual         103  19   71   35    228 
  - Frozen virtual         0    0    0    0     0   
 ----------------------------------------------------
 Beta orbitals:
  - Frozen occupied        4    0    2    1     7   
  - Active occupied        15   2    9    4     30  
  - Active virtual         103  19   71   36    229 
  - Frozen virtual         0    0    0    0     0   
 ----------------------------------------------------

 Import integrals:   CPU 0.00 s  wall 0.00 s

 Import integrals:   CPU 3353.98 s  wall 11654.51 s

 MP2 amplitudes:   CPU 33.46 s  wall 4.43 s

Running a double precision version
           CCSD T amplitudes will be solved using DIIS.

           Start     Size      MaxIter   EConv     TConv     
           3         7         100       1.00e-06  1.00e-04  
 ------------------------------------------------------------------------------
           Energy (a.u.)   Ediff      Tdiff       Comment
 ------------------------------------------------------------------------------
         -2803.52352715                           
     1   -2803.49925746   2.43e-02   9.75e-01     
     2   -2803.53918664   3.99e-02   1.28e-01     
     3   -2803.53880090   3.86e-04   4.08e-02     
     4   -2803.54310921   4.31e-03   1.81e-02     Switched to DIIS steps.
     5   -2803.54631968   3.21e-03   1.63e-02     
     6   -2803.54717706   8.57e-04   8.10e-03     
     7   -2803.54765575   4.79e-04   4.85e-03     
     8   -2803.54779712   1.41e-04   1.82e-03     
     9   -2803.54783560   3.85e-05   1.08e-03     
    10   -2803.54783541   1.87e-07   5.91e-04     
    11   -2803.54782969   5.73e-06   4.92e-04     
    12   -2803.54783038   6.96e-07   1.84e-04     
    13   -2803.54782957   8.12e-07   8.36e-05     
 ------------------------------------------------------------------------------
         -2803.54782957                           CCSD T converged.

End of double precision
 SCF energy                 = -2802.24503557
 MP2 energy                 = -2803.52352715
 CCSD correlation energy     =    -1.30279400
 CCSD total energy           = -2803.54782957

 CCSD  T1^2 = 0.0791  T2^2 = 0.4092  Leading amplitudes:

 Amplitude    Orbitals with energies
 -0.1551       5 (B2) B                  ->    6 (B2) B                   
              -0.5988                         -0.2567                     
 -0.1063       2 (A2) A                  ->    3 (A2) A                   
              -0.5596                         -0.0840                     
 -0.1032       4 (B2) B                  ->    6 (B2) B                   
              -0.6897                         -0.2567                     
 -0.0834       2 (A2) B                  ->    3 (A2) B                   
              -0.5640                         -0.0650                     

 Amplitude    Orbitals with energies
  0.0702       2 (A2) A      2 (A2) B    ->    3 (A2) A      3 (A2) B     
              -0.5596       -0.5640           -0.0840       -0.0650       
 -0.0702       2 (A2) A      2 (A2) B    ->    3 (A2) B      3 (A2) A     
              -0.5596       -0.5640           -0.0650       -0.0840       
 -0.0702       2 (A2) B      2 (A2) A    ->    3 (A2) A      3 (A2) B     
              -0.5640       -0.5596           -0.0840       -0.0650       
  0.0702       2 (A2) B      2 (A2) A    ->    3 (A2) B      3 (A2) A     
              -0.5640       -0.5596           -0.0650       -0.0840       

 Computing CCSD intemediates for later calculations in double precision
 Finished.

Running a double precision version
           CCSD Lambda amplitudes will be solved using DIIS.
           Start     Size      MaxIter   EConv     LConv     
           3         7         100       1.00e-06  1.00e-04  
 ------------------------------------------------------------------------------
            Enorm      Ldiff       Comment
 ------------------------------------------------------------------------------
     1     8.53e-02   5.32e-02     
     2     2.45e-02   2.85e-03     
     3     1.24e-02   1.10e-03     
     4     5.74e-03   5.15e-04     Switched to DIIS steps.
     5     2.76e-03   2.67e-04     
     6     1.68e-03   4.01e-05     
     7     8.21e-04   3.26e-05     
     8     4.63e-04   4.83e-06     
     9     2.55e-04   5.15e-05     
    10     1.66e-04   4.68e-05     
    11     8.04e-05   5.30e-05     
    12     3.10e-05   3.11e-05     
    13     1.33e-05   7.60e-06     
    14     7.02e-06   2.07e-06     
    15     3.82e-06   4.70e-07     
    16     2.31e-06   1.65e-07     
    17     1.35e-06   2.59e-08     
    18     7.89e-07   3.15e-09     
 ------------------------------------------------------------------------------
                                   CCSD Lambda converged.

 CCSD calculation:   CPU 10376.55 s  wall 1249.95 s

        Solving for CVS-EOMEE-CCSD A1 transitions.

       EOMEE-CCSD-SINGLES right amplitudes will be solved using Davidson.
        Amplitudes will be solved using shifted  algorithm.
     Hard-coded thresholds: 
     LinDepThresh=1.00e-15  NormThresh=1.00e-06  ReorthogonThresh=1.00e-02

      Roots     MaxVec    MaxIter   Precond   Conv      Shift    
      6         1000      200       1         1.00e-04  1.00e+01  
 ------------------------------------------------------------------------------
      Iter ConvRoots NVecs ResNorm Current eigenvalues (eV)
 ------------------------------------------------------------------------------
      0    0      6     2.78e-03   305.7897   306.7249   307.0437   307.5568   307.8037   308.1804   
      1    0      12    1.39e-01   304.9971   306.0260   306.4935   307.2580   307.6689   307.9652   
      2    0      18    1.84e-02   301.9889   305.1452   305.7461   306.8886   307.3260   307.4662   
      3    0      24    8.76e-02   301.7174   305.0237   305.7060   306.4385   307.0437   307.2890   
      4    0      30    5.86e-02   301.7092   304.9743   305.7023   305.9933   306.9750   307.2809   
      5    1      36    2.53e-01   300.7031   301.7089*  304.9672   305.7037   305.9216   306.9655   
      6    1      41    1.00e+00   298.1404   300.6966   301.7089   304.9668*  305.7032   305.9191   
      7    3      46    3.65e-02   297.1600   299.4204   301.7089*  304.9668*  305.7030*  305.9186   
      8    4      49    1.69e-03   297.1101   299.3975   301.7089*  304.9668*  305.7030*  305.9186*  
      9    4      51    3.03e-04   297.1054   299.3964   301.7089*  304.9668*  305.7030*  305.9186*  
      10   6      53    2.90e-05   297.1048*  299.3962*  301.7089*  304.9668*  305.7030*  305.9186*  

     Davidson procedure converged

        CVS-EOMEE-CCSD/MP2 right amplitudes will be solved using Davidson.
        Amplitudes will be solved using shifted  algorithm.
     Hard-coded thresholds: 
     LinDepThresh=1.00e-15  NormThresh=1.00e-06  ReorthogonThresh=1.00e-02

      Roots     MaxVec    MaxIter   Precond   Conv      Shift    
      6         1000      200       1         1.00e-04  1.00e+01  
 ------------------------------------------------------------------------------
      Iter ConvRoots NVecs ResNorm Current eigenvalues (eV)
 ------------------------------------------------------------------------------
      0    0      6     1.65e+00   297.1048   299.3962   301.7089   304.9668   305.7030   305.9186   
      1    0      12    2.33e+01   296.0819   298.2851   299.6493   302.5523   303.8512   304.4148   
      2    0      18    2.58e-01   288.5319   289.8452   291.6411   292.8040   294.7073   298.8322   
      3    0      24    7.96e-02   287.7007   288.9997   291.0475   292.2308   293.8620   298.7017   
      4    0      30    2.18e-02   287.5019   288.7867   290.8864   292.0895   293.4730   298.6818   
      5    0      36    2.06e-02   287.4608   288.7500   290.8108   292.0053   293.1262   298.6689   
      6    0      42    1.08e-01   287.4519   288.7421   290.7766   291.9591   292.9154   296.6531   
      7    0      48    3.20e-02   287.4486   288.7375   290.7483   291.9136   292.7016   294.5844   
      8    2      54    1.78e-02   287.4492*  288.7372*  290.7344   291.8902   292.4835   293.6815   
      9    2      58    1.20e-02   287.4492*  288.7372*  290.7242   291.8743   292.2359   293.2445   
      10   2      62    5.23e-03   287.4492*  288.7372*  290.7166   291.8608   292.0169   293.0697   
      11   2      66    4.17e-03   287.4492*  288.7372*  290.7124   291.8332   291.9138   292.9946   
      12   2      70    1.32e-03   287.4492*  288.7372*  290.7104   291.7802   291.8851   292.9375   
      13   3      74    9.06e-04   287.4492*  288.7372*  290.7103*  291.7554   291.8795   292.9069   
      14   4      77    3.78e-04   287.4492*  288.7372*  290.7101*  291.7415   291.8775*  292.8952   
      15   4      79    2.18e-04   287.4492*  288.7372*  290.7099*  291.7335   291.8767*  292.8866   
      16   4      81    1.23e-04   287.4492*  288.7372*  290.7099*  291.7308   291.8766*  292.8815   
      17   5      83    6.29e-05   287.4492*  288.7372*  290.7098*  291.7289*  291.8765*  292.8798   
      18   5      84    5.74e-05   287.4492*  288.7372*  290.7098*  291.7286*  291.8765*  292.8784   
      19   6      85    4.40e-05   287.4492*  288.7372*  290.7098*  291.7285*  291.8765*  292.8772*  

     Davidson procedure converged

 EOMEE transition 1/A1
 Total energy = -2792.98426696 a.u.  Excitation energy = 287.4492 eV.
 R0^2 = 0.0000  R1^2 = 0.8100  R2_CCVV^2 = 0.0015  R2_COVV^2 = 0.0942  Res^2 = 6.28e-05
 Conv-d = yes

 Amplitude    Transitions between orbitals
  0.3827       4 (A1) A                  ->    22 (A1) A                  
  0.3409       4 (A1) B                  ->    22 (A1) B                  
 -0.2805       4 (A1) B                  ->    24 (A1) B                  
  0.2700       4 (A1) A                  ->    24 (A1) A                  
  0.2057       4 (A1) A                  ->    21 (A1) A                  
 -0.1894       4 (A1) B                  ->    26 (A1) B                  
  0.1693       4 (A1) A                  ->    26 (A1) A                  
  0.1320       4 (A1) A                  ->    20 (A1) A                  
  0.1318       4 (A1) B                  ->    31 (A1) B                  
  0.1289       4 (A1) B                  ->    35 (A1) B                  
  0.1192       4 (A1) A                  ->    31 (A1) A                  
  0.1189       4 (A1) B                  ->    21 (A1) B                  
 -0.1166       4 (A1) B                  ->    36 (A1) B                  
  0.1165       4 (A1) B                  ->    20 (A1) B                  
  0.1161       4 (A1) A                  ->    36 (A1) A                  
  0.1121       4 (A1) B                  ->    27 (A1) B                  
 -0.1071       4 (A1) B                  ->    30 (A1) B                  
  0.1044       4 (A1) A                  ->    35 (A1) A                  

              Summary of significant orbitals:

               Number  Type             Irrep      Energy
               6       Occ  Alpha       4 (A1)    -11.5639
               6       Occ  Beta        4 (A1)    -11.5564
               40      Vir  Alpha      20 (A1)     -0.0857
               42      Vir  Alpha      21 (A1)     -0.0689
               45      Vir  Alpha      22 (A1)     -0.0606
               50      Vir  Alpha      24 (A1)     -0.0418
               53      Vir  Alpha      26 (A1)     -0.0259
               66      Vir  Alpha      31 (A1)      0.0078
               75      Vir  Alpha      35 (A1)      0.0638
               79      Vir  Alpha      36 (A1)      0.0860
               39      Vir  Beta       20 (A1)     -0.0855
               41      Vir  Beta       21 (A1)     -0.0678
               44      Vir  Beta       22 (A1)     -0.0576
               49      Vir  Beta       24 (A1)     -0.0397
               53      Vir  Beta       26 (A1)     -0.0247
               55      Vir  Beta       27 (A1)     -0.0239
               65      Vir  Beta       30 (A1)     -0.0026
               66      Vir  Beta       31 (A1)      0.0086
               75      Vir  Beta       35 (A1)      0.0659
               78      Vir  Beta       36 (A1)      0.0863


 EOMEE transition 2/A1
 Total energy = -2792.93693330 a.u.  Excitation energy = 288.7372 eV.
 R0^2 = 0.0000  R1^2 = 0.8010  R2_CCVV^2 = 0.0018  R2_COVV^2 = 0.0986  Res^2 = 9.49e-05
 Conv-d = yes

 Amplitude    Transitions between orbitals
 -0.3813       4 (A1) A                  ->    22 (A1) A                  
  0.3708       4 (A1) B                  ->    22 (A1) B                  
 -0.2970       4 (A1) B                  ->    24 (A1) B                  
 -0.2615       4 (A1) A                  ->    24 (A1) A                  
 -0.2063       4 (A1) A                  ->    21 (A1) A                  
 -0.1989       4 (A1) B                  ->    26 (A1) B                  
 -0.1622       4 (A1) A                  ->    26 (A1) A                  
 -0.1333       4 (A1) A                  ->    20 (A1) A                  
  0.1300       4 (A1) B                  ->    21 (A1) B                  
  0.1295       4 (A1) B                  ->    20 (A1) B                  
  0.1281       4 (A1) B                  ->    31 (A1) B                  
  0.1267       4 (A1) B                  ->    35 (A1) B                  
 -0.1182       4 (A1) B                  ->    36 (A1) B                  
 -0.1176       4 (A1) B                  ->    30 (A1) B                  
  0.1149       4 (A1) B                  ->    27 (A1) B                  
 -0.1081       4 (A1) A                  ->    36 (A1) A                  
 -0.1051       4 (A1) A                  ->    31 (A1) A                  

              Summary of significant orbitals:

               Number  Type             Irrep      Energy
               6       Occ  Alpha       4 (A1)    -11.5639
               6       Occ  Beta        4 (A1)    -11.5564
               40      Vir  Alpha      20 (A1)     -0.0857
               42      Vir  Alpha      21 (A1)     -0.0689
               45      Vir  Alpha      22 (A1)     -0.0606
               50      Vir  Alpha      24 (A1)     -0.0418
               53      Vir  Alpha      26 (A1)     -0.0259
               66      Vir  Alpha      31 (A1)      0.0078
               79      Vir  Alpha      36 (A1)      0.0860
               39      Vir  Beta       20 (A1)     -0.0855
               41      Vir  Beta       21 (A1)     -0.0678
               44      Vir  Beta       22 (A1)     -0.0576
               49      Vir  Beta       24 (A1)     -0.0397
               53      Vir  Beta       26 (A1)     -0.0247
               55      Vir  Beta       27 (A1)     -0.0239
               65      Vir  Beta       30 (A1)     -0.0026
               66      Vir  Beta       31 (A1)      0.0086
               75      Vir  Beta       35 (A1)      0.0659
               78      Vir  Beta       36 (A1)      0.0863


 EOMEE transition 3/A1
 Total energy = -2792.86444206 a.u.  Excitation energy = 290.7098 eV.
 R0^2 = 0.0000  R1^2 = 0.8142  R2_CCVV^2 = 0.0000  R2_COVV^2 = 0.0929  Res^2 = 2.05e-06
 Conv-d = yes

 Amplitude    Transitions between orbitals
  0.5738       5 (A1) A                  ->    20 (A1) A                  
  0.3367       5 (A1) A                  ->    21 (A1) A                  
 -0.2717       5 (A1) A                  ->    38 (A1) A                  
 -0.2429       5 (A1) A                  ->    28 (A1) A                  
  0.2087       5 (A1) A                  ->    24 (A1) A                  
 -0.1722       5 (A1) A                  ->    25 (A1) A                  
  0.1657       5 (A1) A                  ->    30 (A1) A                  
 -0.1181       5 (A1) A                  ->    44 (A1) A                  
 -0.1109       5 (A1) A                  ->    32 (A1) A                  
  0.1080       5 (A1) A                  ->    26 (A1) A                  
  0.1008       5 (A1) A                  ->    29 (A1) A                  
 -0.1003       5 (A1) A                  ->    48 (A1) A                  

              Summary of significant orbitals:

               Number  Type             Irrep      Energy
               7       Occ  Alpha       5 (A1)    -11.4771
               40      Vir  Alpha      20 (A1)     -0.0857
               42      Vir  Alpha      21 (A1)     -0.0689
               50      Vir  Alpha      24 (A1)     -0.0418
               51      Vir  Alpha      25 (A1)     -0.0315
               53      Vir  Alpha      26 (A1)     -0.0259
               59      Vir  Alpha      28 (A1)     -0.0126
               61      Vir  Alpha      29 (A1)     -0.0073
               63      Vir  Alpha      30 (A1)     -0.0034
               68      Vir  Alpha      32 (A1)      0.0276
               85      Vir  Alpha      38 (A1)      0.1091
               97      Vir  Alpha      44 (A1)      0.2244
               104     Vir  Alpha      48 (A1)      0.3459


 EOMEE transition 4/A1
 Total energy = -2792.82700265 a.u.  Excitation energy = 291.7285 eV.
 R0^2 = 0.0000  R1^2 = 0.7526  R2_CCVV^2 = 0.0000  R2_COVV^2 = 0.1237  Res^2 = 3.42e-05
 Conv-d = yes

 Amplitude    Transitions between orbitals
  0.6886       5 (A1) A                  ->    22 (A1) A                  
  0.2327       5 (A1) A                  ->    24 (A1) A                  
 -0.1924       5 (A1) A                  ->    30 (A1) A                  
  0.1592       5 (A1) A                  ->    20 (A1) A                  
  0.1583       5 (A1) A                  ->    26 (A1) A                  
  0.1362       5 (A1) A                  ->    28 (A1) A                  
  0.1272       5 (A1) A                  ->    27 (A1) A                  
  0.1172       5 (A1) A                  ->    32 (A1) A                  
  0.1089       5 (A1) A                  ->    38 (A1) A                  
  0.1001       5 (A1) A                  ->    21 (A1) A                  

              Summary of significant orbitals:

               Number  Type             Irrep      Energy
               7       Occ  Alpha       5 (A1)    -11.4771
               40      Vir  Alpha      20 (A1)     -0.0857
               42      Vir  Alpha      21 (A1)     -0.0689
               45      Vir  Alpha      22 (A1)     -0.0606
               50      Vir  Alpha      24 (A1)     -0.0418
               53      Vir  Alpha      26 (A1)     -0.0259
               55      Vir  Alpha      27 (A1)     -0.0241
               59      Vir  Alpha      28 (A1)     -0.0126
               63      Vir  Alpha      30 (A1)     -0.0034
               68      Vir  Alpha      32 (A1)      0.0276
               85      Vir  Alpha      38 (A1)      0.1091


 EOMEE transition 5/A1
 Total energy = -2792.82156549 a.u.  Excitation energy = 291.8765 eV.
 R0^2 = 0.0000  R1^2 = 0.7864  R2_CCVV^2 = 0.0000  R2_COVV^2 = 0.1068  Res^2 = 9.37e-06
 Conv-d = yes

 Amplitude    Transitions between orbitals
  0.4233       5 (A1) A                  ->    20 (A1) A                  
  0.4054       5 (A1) A                  ->    23 (A1) A                  
 -0.3601       5 (A1) A                  ->    21 (A1) A                  
 -0.2943       5 (A1) A                  ->    33 (A1) A                  
  0.2512       5 (A1) A                  ->    28 (A1) A                  
 -0.2281       5 (A1) A                  ->    24 (A1) A                  
 -0.2168       5 (A1) A                  ->    25 (A1) A                  
  0.1209       5 (A1) A                  ->    38 (A1) A                  

              Summary of significant orbitals:

               Number  Type             Irrep      Energy
               7       Occ  Alpha       5 (A1)    -11.4771
               40      Vir  Alpha      20 (A1)     -0.0857
               42      Vir  Alpha      21 (A1)     -0.0689
               46      Vir  Alpha      23 (A1)     -0.0514
               50      Vir  Alpha      24 (A1)     -0.0418
               51      Vir  Alpha      25 (A1)     -0.0315
               59      Vir  Alpha      28 (A1)     -0.0126
               73      Vir  Alpha      33 (A1)      0.0540
               85      Vir  Alpha      38 (A1)      0.1091


 EOMEE transition 6/A1
 Total energy = -2792.78478910 a.u.  Excitation energy = 292.8772 eV.
 R0^2 = 0.0000  R1^2 = 0.7851  R2_CCVV^2 = 0.0000  R2_COVV^2 = 0.1075  Res^2 = 6.09e-05
 Conv-d = yes

 Amplitude    Transitions between orbitals
 -0.4590       5 (A1) A                  ->    23 (A1) A                  
 -0.3141       5 (A1) A                  ->    31 (A1) A                  
 -0.2839       5 (A1) A                  ->    24 (A1) A                  
  0.2640       5 (A1) A                  ->    20 (A1) A                  
  0.2235       5 (A1) A                  ->    29 (A1) A                  
 -0.1941       5 (A1) A                  ->    21 (A1) A                  
 -0.1799       5 (A1) A                  ->    46 (A1) A                  
 -0.1708       5 (A1) A                  ->    35 (A1) A                  
  0.1661       5 (A1) A                  ->    36 (A1) A                  
  0.1461       5 (A1) A                  ->    22 (A1) A                  
  0.1440       5 (A1) A                  ->    40 (A1) A                  
 -0.1429       5 (A1) A                  ->    30 (A1) A                  
  0.1281       5 (A1) A                  ->    33 (A1) A                  
  0.1258       5 (A1) A                  ->    27 (A1) A                  

              Summary of significant orbitals:

               Number  Type             Irrep      Energy
               7       Occ  Alpha       5 (A1)    -11.4771
               40      Vir  Alpha      20 (A1)     -0.0857
               42      Vir  Alpha      21 (A1)     -0.0689
               45      Vir  Alpha      22 (A1)     -0.0606
               46      Vir  Alpha      23 (A1)     -0.0514
               50      Vir  Alpha      24 (A1)     -0.0418
               55      Vir  Alpha      27 (A1)     -0.0241
               61      Vir  Alpha      29 (A1)     -0.0073
               63      Vir  Alpha      30 (A1)     -0.0034
               66      Vir  Alpha      31 (A1)      0.0078
               73      Vir  Alpha      33 (A1)      0.0540
               75      Vir  Alpha      35 (A1)      0.0638
               79      Vir  Alpha      36 (A1)      0.0860
               88      Vir  Alpha      40 (A1)      0.1293
               101     Vir  Alpha      46 (A1)      0.2698


      CVS-EOM-CCSD/MP2 left amplitudes will be solved using Davidson.
        Amplitudes will be solved using MOM  algorithm.
     Hard-coded thresholds: 
     LinDepThresh=1.00e-15  NormThresh=1.00e-06  ReorthogonThresh=1.00e-02

      Roots     MaxVec    MaxIter   Precond   Conv      Shift    
      6         1000      200       1         1.00e-04  1.00e+01  
 ------------------------------------------------------------------------------
      Iter ConvRoots NVecs ResNorm Current eigenvalues (eV)
 ------------------------------------------------------------------------------
      0    0      6     2.24e-02   287.4492   288.7372   290.7098   291.7285   291.8765   292.8772   
      1    0      12    1.17e+01   287.4490   288.7371   290.7097   291.7284   291.8764   292.8771   
      2    0      18    5.60e-03   287.4491   288.7370   290.7097   291.7284   291.8765   292.8771   
      3    0      24    2.01e-03   287.4491   288.7368   290.7097   291.7283   291.8764   292.8771   
      4    0      30    1.07e-03   287.4491   288.7366   290.7097   291.7281   291.8765   292.8769   
      5    3      36    1.35e-04   287.4491*  288.7365*  290.7097*  291.7280   291.8764   292.8768   
      6    6      39    5.44e-05   287.4491*  288.7365*  290.7097*  291.7280*  291.8765*  292.8767*  

     Davidson procedure converged

        Solving for CVS-EOMEE-CCSD A2 transitions.

       EOMEE-CCSD-SINGLES right amplitudes will be solved using Davidson.
        Amplitudes will be solved using shifted  algorithm.
     Hard-coded thresholds: 
     LinDepThresh=1.00e-15  NormThresh=1.00e-06  ReorthogonThresh=1.00e-02

      Roots     MaxVec    MaxIter   Precond   Conv      Shift    
      6         1000      200       1         1.00e-04  1.00e+01  
 ------------------------------------------------------------------------------
      Iter ConvRoots NVecs ResNorm Current eigenvalues (eV)
 ------------------------------------------------------------------------------
      0    0      6     5.52e-03   297.8052   303.5907   304.4249   306.8509   308.0087   308.2411   
      1    0      12    2.80e-02   297.4894   303.2722   303.7201   306.4222   307.7542   307.9156   
      2    1      18    1.03e-03   297.2443   302.8409   303.1879*  306.2148   307.6669   307.8280   
      3    5      23    2.57e-04   297.2420*  302.8260*  303.1875*  306.2038*  307.6464   307.8233*  
      4    5      24    3.68e-05   297.2420*  302.8259*  303.1875*  306.2036*  307.6437   307.8233*  
      5    5      25    5.70e-04   297.2419*  302.8259*  303.1875*  306.2034*  307.6413   307.8233*  
      6    3      26    6.26e-02   297.2419*  302.8259*  303.1875*  305.7899   306.2037   307.6437   
      7    5      29    2.03e-03   297.2419*  302.8259*  303.1875*  305.4599   306.2035*  307.6435*  
      8    5      30    2.79e-05   297.2419*  302.8259*  303.1875*  305.4510   306.2035*  307.6435*  
      9    6      31    1.28e-05   297.2419*  302.8259*  303.1875*  305.4500*  306.2035*  307.6435*  

     Davidson procedure converged

        CVS-EOMEE-CCSD/MP2 right amplitudes will be solved using Davidson.
        Amplitudes will be solved using shifted  algorithm.
     Hard-coded thresholds: 
     LinDepThresh=1.00e-15  NormThresh=1.00e-06  ReorthogonThresh=1.00e-02

      Roots     MaxVec    MaxIter   Precond   Conv      Shift    
      6         1000      200       1         1.00e-04  1.00e+01  
 ------------------------------------------------------------------------------
      Iter ConvRoots NVecs ResNorm Current eigenvalues (eV)
 ------------------------------------------------------------------------------
      0    0      6     1.35e+00   297.2419   302.8259   303.1875   305.4500   306.2035   307.6435   
      1    0      12    5.31e+00   295.9540   300.1665   301.3664   302.2938   304.8759   306.3217   
      2    0      18    3.29e-02   289.3528   289.9270   290.7167   295.3135   299.1698   300.4180   
      3    0      24    5.82e-03   288.8101   289.7637   290.1929   295.0874   299.0624   300.3016   
      4    0      30    1.81e-03   288.7195   289.7323   290.1389   295.0108   299.0532   300.2909   
Found complex roots...
      5    1      36    5.44e-04   288.6925   289.7302*  290.1176   294.9879   299.0470   300.2778   
      6    1      41    7.23e-02   288.6860   289.7293*  290.1110   294.9814   298.9116   299.0491   
      7    3      46    3.59e-02   288.6843*  289.7294*  290.1089   292.7291   294.9810*  299.0393   
      8    3      49    2.72e-02   288.6843*  289.7295*  290.1061   290.7570   294.9811*  298.4378   
      9    4      52    1.11e-02   288.6843*  289.7295*  290.1052*  290.5959   294.9811*  296.9643   
      10   4      54    6.64e-03   288.6843*  289.7295*  290.1046*  290.5349   294.9810*  296.1644   
      11   4      56    4.60e-03   288.6843*  289.7295*  290.1046*  290.5367   294.9810*  295.6832   
      12   4      58    4.07e-03   288.6843*  289.7295*  290.1047*  290.5319   294.9810*  295.2056   
      13   5      60    2.09e-03   288.6843*  289.7295*  290.1047*  290.5326*  294.9007   294.9811*  
Found complex roots...
      14   5      61    9.65e-04   288.6843*  289.7295*  290.1047*  290.5326*  294.7452   294.9811*  
      15   5      62    6.69e-04   288.6843*  289.7295*  290.1047*  290.5325*  294.6904   294.9811*  
Found complex roots...
      16   5      63    4.95e-04   288.6843*  289.7295*  290.1047*  290.5325*  294.6177   294.9811*  
      17   5      64    3.72e-04   288.6843*  289.7295*  290.1047*  290.5325*  294.5828   294.9811*  
      18   5      65    1.39e-04   288.6843*  289.7295*  290.1047*  290.5325*  294.5655   294.9811*  
      19   5      66    6.67e-05   288.6843*  289.7295*  290.1047*  290.5325*  294.5521   294.9811*  
      20   5      67    4.69e-05   288.6843*  289.7295*  290.1047*  290.5326*  294.5525   294.9811*  
      21   5      68    4.13e-05   288.6843*  289.7295*  290.1047*  290.5326*  294.5500   294.9811*  
      22   5      69    3.85e-05   288.6843*  289.7295*  290.1047*  290.5325*  294.5461   294.9811*  
      23   6      70    3.33e-05   288.6843*  289.7295*  290.1047*  290.5326*  294.5476*  294.9811*  

     Davidson procedure converged

 EOMEE transition 1/A2
 Total energy = -2792.93887762 a.u.  Excitation energy = 288.6843 eV.
 R0^2 = 0.0000  R1^2 = 0.7760  R2_CCVV^2 = 0.0000  R2_COVV^2 = 0.1120  Res^2 = 4.73e-05
 Conv-d = yes

 Amplitude    Transitions between orbitals
 -0.8550       5 (A1) A                  ->    3 (A2) A                   
  0.1526       5 (A1) A                  ->    7 (A2) A                   
  0.1147       5 (A1) A                  ->    5 (A2) A                   
  0.0632       5 (A1) A                  ->    10 (A2) A                  

              Summary of significant orbitals:

               Number  Type             Irrep      Energy
               7       Occ  Alpha       5 (A1)    -11.4771
               41      Vir  Alpha       3 (A2)     -0.0840
               57      Vir  Alpha       5 (A2)     -0.0214
               81      Vir  Alpha       7 (A2)      0.0932
               123     Vir  Alpha      10 (A2)      0.6439


 EOMEE transition 2/A2
 Total energy = -2792.90046654 a.u.  Excitation energy = 289.7295 eV.
 R0^2 = 0.0000  R1^2 = 0.8818  R2_CCVV^2 = 0.0000  R2_COVV^2 = 0.0591  Res^2 = 2.90e-05
 Conv-d = yes

 Amplitude    Transitions between orbitals
 -0.9261       2 (B1) B                  ->    6 (B2) B                   
 -0.0966       2 (B1) B                  ->    15 (B2) B                  
 -0.0621       2 (B1) B                  ->    22 (B2) B                  
  0.0454       2 (B1) B                  ->    10 (B2) B                  

              Summary of significant orbitals:

               Number  Type             Irrep      Energy
               7       Occ  Beta        2 (B1)    -11.4667
               38      Vir  Beta        6 (B2)     -0.2567
               54      Vir  Beta       10 (B2)     -0.0242
               77      Vir  Beta       15 (B2)      0.0766
               122     Vir  Beta       22 (B2)      0.6349


 EOMEE transition 3/A2
 Total energy = -2792.88667708 a.u.  Excitation energy = 290.1047 eV.
 R0^2 = 0.0000  R1^2 = 0.7784  R2_CCVV^2 = 0.0016  R2_COVV^2 = 0.1100  Res^2 = 8.56e-07
 Conv-d = yes

 Amplitude    Transitions between orbitals
  0.8239       4 (A1) B                  ->    3 (A2) B                   
  0.1817       4 (A1) B                  ->    7 (A2) B                   
  0.1799       4 (A1) B                  ->    5 (A2) B                   
 -0.1425       4 (A1) B                  ->    4 (A2) B                   

              Summary of significant orbitals:

               Number  Type             Irrep      Energy
               6       Occ  Beta        4 (A1)    -11.5564
               43      Vir  Beta        3 (A2)     -0.0650
               48      Vir  Beta        4 (A2)     -0.0441
               57      Vir  Beta        5 (A2)     -0.0203
               80      Vir  Beta        7 (A2)      0.0962


 EOMEE transition 4/A2
 Total energy = -2792.87095258 a.u.  Excitation energy = 290.5326 eV.
 R0^2 = 0.0000  R1^2 = 0.7736  R2_CCVV^2 = 0.0016  R2_COVV^2 = 0.1124  Res^2 = 2.35e-05
 Conv-d = yes

 Amplitude    Transitions between orbitals
  0.8581       4 (A1) A                  ->    3 (A2) A                   
 -0.1339       4 (A1) A                  ->    7 (A2) A                   
 -0.1069       4 (A1) A                  ->    5 (A2) A                   
 -0.0534       4 (A1) A                  ->    10 (A2) A                  

              Summary of significant orbitals:

               Number  Type             Irrep      Energy
               6       Occ  Alpha       4 (A1)    -11.5639
               41      Vir  Alpha       3 (A2)     -0.0840
               57      Vir  Alpha       5 (A2)     -0.0214
               81      Vir  Alpha       7 (A2)      0.0932
               123     Vir  Alpha      10 (A2)      0.6439


 EOMEE transition 5/A2
 Total energy = -2792.72340433 a.u.  Excitation energy = 294.5476 eV.
 R0^2 = 0.0000  R1^2 = 0.7799  R2_CCVV^2 = 0.0016  R2_COVV^2 = 0.1093  Res^2 = 8.75e-05
 Conv-d = yes

 Amplitude    Transitions between orbitals
 -0.7337       4 (A1) B                  ->    4 (A2) B                   
 -0.3598       4 (A1) B                  ->    6 (A2) B                   
 -0.2292       4 (A1) B                  ->    3 (A2) B                   
  0.1626       4 (A1) B                  ->    7 (A2) B                   
  0.1538       4 (A1) B                  ->    5 (A2) B                   

              Summary of significant orbitals:

               Number  Type             Irrep      Energy
               6       Occ  Beta        4 (A1)    -11.5564
               43      Vir  Beta        3 (A2)     -0.0650
               48      Vir  Beta        4 (A2)     -0.0441
               57      Vir  Beta        5 (A2)     -0.0203
               71      Vir  Beta        6 (A2)      0.0490
               80      Vir  Beta        7 (A2)      0.0962


 EOMEE transition 6/A2
 Total energy = -2792.70747477 a.u.  Excitation energy = 294.9811 eV.
 R0^2 = 0.0000  R1^2 = 0.8649  R2_CCVV^2 = 0.0000  R2_COVV^2 = 0.0675  Res^2 = 1.14e-05
 Conv-d = yes

 Amplitude    Transitions between orbitals
  0.6395       2 (B1) B                  ->    8 (B2) B                   
  0.5021       2 (B1) B                  ->    9 (B2) B                   
  0.2285       2 (B1) B                  ->    16 (B2) B                  
  0.1926       2 (B1) B                  ->    10 (B2) B                  
  0.1662       2 (B1) B                  ->    11 (B2) B                  
 -0.1289       2 (B1) B                  ->    17 (B2) B                  
 -0.1270       2 (B1) B                  ->    18 (B2) B                  
 -0.1184       2 (B1) B                  ->    7 (B2) B                   

              Summary of significant orbitals:

               Number  Type             Irrep      Energy
               7       Occ  Beta        2 (B1)    -11.4667
               42      Vir  Beta        7 (B2)     -0.0654
               45      Vir  Beta        8 (B2)     -0.0536
               50      Vir  Beta        9 (B2)     -0.0369
               54      Vir  Beta       10 (B2)     -0.0242
               58      Vir  Beta       11 (B2)     -0.0194
               81      Vir  Beta       16 (B2)      0.0983
               84      Vir  Beta       17 (B2)      0.1098
               94      Vir  Beta       18 (B2)      0.1852


      CVS-EOM-CCSD/MP2 left amplitudes will be solved using Davidson.
        Amplitudes will be solved using MOM  algorithm.
     Hard-coded thresholds: 
     LinDepThresh=1.00e-15  NormThresh=1.00e-06  ReorthogonThresh=1.00e-02

      Roots     MaxVec    MaxIter   Precond   Conv      Shift    
      6         1000      200       1         1.00e-04  1.00e+01  
 ------------------------------------------------------------------------------
      Iter ConvRoots NVecs ResNorm Current eigenvalues (eV)
 ------------------------------------------------------------------------------
      0    0      6     2.65e-02   288.6843   289.7295   290.1047   290.5326   294.5476   294.9811   
      1    0      12    1.01e+00   288.6839   289.7295   290.1047   290.5318   294.5455   294.9810   
      2    0      18    4.17e-03   288.6837   289.7292   290.1047   290.5316   294.5452   294.9810   
      3    0      24    1.07e-03   288.6834   289.7293   290.1047   290.5315   294.5449   294.9810   
      4    2      30    2.09e-04   288.6832   289.7294*  290.1047*  290.5315   294.5445   294.9810   
      5    5      34    9.41e-05   288.6831*  289.7294*  290.1047*  290.5315*  294.5437   294.9810*  
      6    5      35    1.16e-03   288.6831*  289.7294*  290.1047*  290.5315*  294.5378   294.9810*  
      7    5      36    1.25e-03   288.6831*  289.7294*  290.1047*  290.5315*  294.5697   294.9810*  
      8    5      37    1.63e-04   288.6831*  289.7294*  290.1047*  290.5315*  294.5532   294.9810*  
      9    5      38    4.14e-05   288.6831*  289.7294*  290.1047*  290.5315*  294.5520   294.9810*  
      10   5      39    4.43e-05   288.6831*  289.7294*  290.1047*  290.5315*  294.5511   294.9810*  
      11   6      40    3.50e-05   288.6831*  289.7294*  290.1047*  290.5315*  294.5507*  294.9810*  

     Davidson procedure converged

        Solving for CVS-EOMEE-CCSD B1 transitions.

       EOMEE-CCSD-SINGLES right amplitudes will be solved using Davidson.
        Amplitudes will be solved using shifted  algorithm.
     Hard-coded thresholds: 
     LinDepThresh=1.00e-15  NormThresh=1.00e-06  ReorthogonThresh=1.00e-02

      Roots     MaxVec    MaxIter   Precond   Conv      Shift    
      6         1000      200       1         1.00e-04  1.00e+01  
 ------------------------------------------------------------------------------
      Iter ConvRoots NVecs ResNorm Current eigenvalues (eV)
 ------------------------------------------------------------------------------
      0    0      6     2.29e-03   305.2024   306.1979   307.0015   307.3423   307.3520   307.8797   
      1    0      12    9.74e-02   304.9448   305.7623   306.7539   306.9565   306.9638   307.4509   
      2    0      18    9.34e-03   304.4734   305.1436   306.3490   306.6288   306.6378   307.2443   
      3    0      24    1.46e-02   304.4571   305.1322   306.2958   306.4569   306.6194   307.1825   
      4    1      30    4.37e-03   304.4556   305.1318*  306.2904   306.3913   306.6181   307.1637   
      5    4      35    2.94e-03   304.4556*  305.1318*  306.2902*  306.3676   306.6180*  307.1619   
      6    3      37    2.34e-01   304.4556*  305.1318*  306.2902   306.2951   306.6180*  306.8736   
      7    2      40    4.40e-02   304.4556*  305.1318*  305.5292   306.2901   306.4259   306.6180   
      8    2      44    8.03e-02   304.4556*  305.1317*  305.4222   306.2822   306.3140   306.4192   
      9    3      48    5.53e-02   304.4556*  305.1317*  305.4142   306.0848   306.2911   306.4185*  
      10   4      51    4.82e-02   304.4556*  305.1317*  305.4138*  305.7856   306.2904   306.4185*  
      11   5      53    4.83e-03   304.4556*  305.1317*  305.4138*  305.7017   306.2904*  306.4185*  
      12   5      54    2.21e-04   304.4556*  305.1317*  305.4138*  305.6967   306.2904*  306.4185*  
      13   5      55    2.74e-05   304.4556*  305.1317*  305.4138*  305.6962   306.2904*  306.4185*  
      14   6      56    1.10e-05   304.4556*  305.1317*  305.4138*  305.6962*  306.2904*  306.4185*  

     Davidson procedure converged

        CVS-EOMEE-CCSD/MP2 right amplitudes will be solved using Davidson.
        Amplitudes will be solved using shifted  algorithm.
     Hard-coded thresholds: 
     LinDepThresh=1.00e-15  NormThresh=1.00e-06  ReorthogonThresh=1.00e-02

      Roots     MaxVec    MaxIter   Precond   Conv      Shift    
      6         1000      200       1         1.00e-04  1.00e+01  
 ------------------------------------------------------------------------------
      Iter ConvRoots NVecs ResNorm Current eigenvalues (eV)
 ------------------------------------------------------------------------------
      0    0      6     1.38e+00   304.4556   305.1317   305.4138   305.6962   306.2904   306.4185   
      1    0      12    1.67e+01   303.3674   303.3956   303.7719   303.7899   304.0999   305.2686   
      2    0      18    2.26e-01   293.2178   296.3372   296.8080   296.9104   298.0251   299.1325   
      3    0      24    4.03e-02   292.7527   295.4889   296.0306   296.6361   297.9073   299.0092   
      4    0      30    3.58e-02   292.6940   295.0575   295.6541   296.6099   297.8908   298.9943   
      5    0      36    1.09e-02   292.6548   294.7020   295.3949   296.6016   297.8798   298.9871   
      6    0      42    8.60e-02   292.6294   294.4151   295.2178   296.5974   297.8579   297.8708   
      7    1      48    6.92e-02   292.5979   293.9829   295.0019   295.9584   296.5950*  297.7121   
      8    0      53    4.60e-02   292.5726   293.6179   294.7498   295.2905   296.3273   296.5923   
      9    0      59    3.17e-02   292.5575   293.4515   294.4676   294.9933   295.7753   295.9945   
      10   0      65    2.01e-02   292.5511   293.3659   294.1297   294.8157   295.4238   295.4669   
      11   0      71    1.21e-02   292.5477   293.3306   293.7581   294.6862   294.9817   295.2638   
      12   1      77    5.34e-03   292.5467*  293.3208   293.6202   294.5833   294.8020   295.1605   
      13   1      82    8.56e-03   292.5468*  293.3140   293.5333   294.5360   294.5844   295.0956   
Found complex roots...
      14   2      87    4.42e-03   292.5469*  293.3130*  293.5066   294.3040   294.5100   295.0530   
Found complex roots...
      15   1      91    3.68e-03   292.5468*  293.3130   293.4915   294.1440   294.4978   295.0207   
      16   2      96    3.24e-03   292.5467*  293.3114*  293.4690   294.0289   294.4869   295.0041   
      17   2      100   2.53e-03   292.5467*  293.3114*  293.4611   293.9087   294.4758   294.9652   
      18   2      104   2.72e-03   292.5467*  293.3114*  293.4553   293.8353   294.4682   294.9332   
      19   2      108   1.26e-03   292.5467*  293.3113*  293.4469   293.7711   294.4625   294.9012   
      20   2      112   1.18e-03   292.5466*  293.3112*  293.4471   293.7446   294.4589   294.8629   
      21   3      116   1.01e-03   292.5466*  293.3111*  293.4438   293.7308   294.4581*  294.8364   
      22   4      119   9.53e-04   292.5466*  293.3109*  293.4430*  293.7123   294.4582*  294.7949   
      23   4      121   1.03e-03   292.5466*  293.3109*  293.4425*  293.7043   294.4582*  294.7496   
      24   4      123   8.31e-04   292.5466*  293.3109*  293.4417*  293.7015   294.4581*  294.7092   
      25   3      125   9.23e-04   292.5466*  293.3109*  293.4417*  293.6971   294.4581   294.6547   
      26   4      128   4.82e-04   292.5466*  293.3109*  293.4417*  293.6937   294.4567*  294.6240   
Found complex roots...
      27   4      130   4.72e-04   292.5466*  293.3109*  293.4415*  293.6933   294.4566*  294.6024   
      28   5      132   4.40e-04   292.5466*  293.3109*  293.4415*  293.6926*  294.4566*  294.5773   
Found complex roots...
      29   5      133   4.63e-04   292.5466*  293.3109*  293.4415*  293.6917*  294.4566*  294.5594   
      30   5      134   4.66e-04   292.5466*  293.3109*  293.4415*  293.6920*  294.4566*  294.5366   
      31   5      135   2.16e-04   292.5466*  293.3109*  293.4415*  293.6915*  294.4566*  294.5199   
      32   5      136   2.35e-04   292.5466*  293.3109*  293.4415*  293.6915*  294.4566*  294.5147   
      33   5      137   1.42e-04   292.5466*  293.3109*  293.4415*  293.6912*  294.4566*  294.5022   
      34   5      138   3.03e-04   292.5466*  293.3109*  293.4415*  293.6911*  294.4566*  294.4994   
      35   2      139   2.22e-01   292.5466*  293.3109   293.4413*  293.6913   294.0700   294.4567   
      36   5      143   1.60e-04   292.5466*  293.3103*  293.4414*  293.6912*  294.4570*  294.4946   
Found complex roots...
      37   5      144   1.58e-04   292.5466*  293.3103*  293.4414*  293.6911*  294.4571*  294.4896   
Found complex roots...
      38   5      145   1.00e-04   292.5466*  293.3103*  293.4414*  293.6911*  294.4570*  294.4869   
      39   4      146   1.45e-03   292.5466*  293.3103*  293.4414*  293.6911*  294.4568   294.4777   
      40   5      148   1.66e-04   292.5466*  293.3103*  293.4414*  293.6911*  294.4554*  294.4879   
      41   5      149   6.91e-05   292.5466*  293.3103*  293.4414*  293.6911*  294.4554*  294.4829   
      42   5      150   1.05e-04   292.5466*  293.3103*  293.4414*  293.6911*  294.4554*  294.4812   
      43   1      151   7.79e-01   292.5465   292.6737   293.3104   293.4417   293.6912   294.4554*  
      44   5      156   5.53e-05   292.5466*  293.3101*  293.4415*  293.6911*  294.4554*  294.4805   
      45   5      157   3.43e-05   292.5466*  293.3101*  293.4414*  293.6911*  294.4554*  294.4800   
      46   5      158   7.35e-05   292.5466*  293.3101*  293.4415*  293.6911*  294.4554*  294.4794   
      47   5      159   1.68e+00   288.7750   292.5466*  293.3101*  293.4414*  293.6912*  294.4554*  
      48   6      160   2.75e-05   292.5466*  293.3101*  293.4415*  293.6911*  294.4554*  294.4797*  

     Davidson procedure converged

 EOMEE transition 1/B1
 Total energy = -2792.79693818 a.u.  Excitation energy = 292.5466 eV.
 R0^2 = 0.0000  R1^2 = 0.7854  R2_CCVV^2 = 0.0000  R2_COVV^2 = 0.1073  Res^2 = 5.02e-07
 Conv-d = yes

 Amplitude    Transitions between orbitals
  0.6985       5 (A1) A                  ->    12 (B1) A                  
  0.2687       5 (A1) A                  ->    13 (B1) A                  
 -0.2472       5 (A1) A                  ->    18 (B1) A                  
 -0.2449       5 (A1) A                  ->    15 (B1) A                  
  0.1857       5 (A1) A                  ->    17 (B1) A                  
  0.1350       5 (A1) A                  ->    24 (B1) A                  
  0.1219       5 (A1) A                  ->    21 (B1) A                  
 -0.1023       5 (A1) A                  ->    23 (B1) A                  

              Summary of significant orbitals:

               Number  Type             Irrep      Energy
               7       Occ  Alpha       5 (A1)    -11.4771
               43      Vir  Alpha      12 (B1)     -0.0681
               47      Vir  Alpha      13 (B1)     -0.0485
               56      Vir  Alpha      15 (B1)     -0.0228
               62      Vir  Alpha      17 (B1)     -0.0052
               65      Vir  Alpha      18 (B1)     -0.0028
               77      Vir  Alpha      21 (B1)      0.0751
               82      Vir  Alpha      23 (B1)      0.1015
               86      Vir  Alpha      24 (B1)      0.1152


 EOMEE transition 2/B1
 Total energy = -2792.76888036 a.u.  Excitation energy = 293.3101 eV.
 R0^2 = 0.0000  R1^2 = 0.7849  R2_CCVV^2 = 0.0000  R2_COVV^2 = 0.1076  Res^2 = 9.39e-06
 Conv-d = yes

 Amplitude    Transitions between orbitals
 -0.5174       5 (A1) A                  ->    13 (B1) A                  
 -0.3334       5 (A1) A                  ->    19 (B1) A                  
  0.3317       5 (A1) A                  ->    12 (B1) A                  
 -0.3264       5 (A1) A                  ->    14 (B1) A                  
 -0.2357       5 (A1) A                  ->    17 (B1) A                  
  0.1757       5 (A1) A                  ->    23 (B1) A                  
  0.1595       5 (A1) A                  ->    30 (B1) A                  
 -0.1401       5 (A1) A                  ->    21 (B1) A                  
  0.1247       5 (A1) A                  ->    22 (B1) A                  
 -0.1083       5 (A1) A                  ->    16 (B1) A                  

              Summary of significant orbitals:

               Number  Type             Irrep      Energy
               7       Occ  Alpha       5 (A1)    -11.4771
               43      Vir  Alpha      12 (B1)     -0.0681
               47      Vir  Alpha      13 (B1)     -0.0485
               52      Vir  Alpha      14 (B1)     -0.0288
               60      Vir  Alpha      16 (B1)     -0.0111
               62      Vir  Alpha      17 (B1)     -0.0052
               67      Vir  Alpha      19 (B1)      0.0224
               77      Vir  Alpha      21 (B1)      0.0751
               80      Vir  Alpha      22 (B1)      0.0919
               82      Vir  Alpha      23 (B1)      0.1015
               100     Vir  Alpha      30 (B1)      0.2606


 EOMEE transition 3/B1
 Total energy = -2792.76405277 a.u.  Excitation energy = 293.4415 eV.
 R0^2 = 0.0000  R1^2 = 0.7797  R2_CCVV^2 = 0.0016  R2_COVV^2 = 0.1094  Res^2 = 2.01e-06
 Conv-d = yes

 Amplitude    Transitions between orbitals
 -0.7330       4 (A1) B                  ->    12 (B1) B                  
  0.2528       4 (A1) B                  ->    15 (B1) B                  
 -0.1945       4 (A1) B                  ->    13 (B1) B                  
 -0.1934       4 (A1) B                  ->    16 (B1) B                  
 -0.1548       4 (A1) B                  ->    18 (B1) B                  
  0.1243       4 (A1) B                  ->    19 (B1) B                  
  0.1188       4 (A1) B                  ->    24 (B1) B                  
  0.1112       4 (A1) B                  ->    14 (B1) B                  
  0.1011       4 (A1) B                  ->    20 (B1) B                  

              Summary of significant orbitals:

               Number  Type             Irrep      Energy
               6       Occ  Beta        4 (A1)    -11.5564
               40      Vir  Beta       12 (B1)     -0.0682
               47      Vir  Beta       13 (B1)     -0.0485
               52      Vir  Beta       14 (B1)     -0.0288
               56      Vir  Beta       15 (B1)     -0.0228
               60      Vir  Beta       16 (B1)     -0.0110
               63      Vir  Beta       18 (B1)     -0.0030
               67      Vir  Beta       19 (B1)      0.0226
               72      Vir  Beta       20 (B1)      0.0530
               86      Vir  Beta       24 (B1)      0.1147


 EOMEE transition 4/B1
 Total energy = -2792.75488064 a.u.  Excitation energy = 293.6911 eV.
 R0^2 = 0.0000  R1^2 = 0.7709  R2_CCVV^2 = 0.0016  R2_COVV^2 = 0.1138  Res^2 = 5.73e-07
 Conv-d = yes

 Amplitude    Transitions between orbitals
  0.7266       4 (A1) A                  ->    12 (B1) A                  
 -0.2518       4 (A1) A                  ->    15 (B1) A                  
 -0.2026       4 (A1) A                  ->    13 (B1) A                  
 -0.1961       4 (A1) A                  ->    16 (B1) A                  
 -0.1485       4 (A1) A                  ->    18 (B1) A                  
 -0.1195       4 (A1) A                  ->    19 (B1) A                  
  0.1138       4 (A1) A                  ->    24 (B1) A                  
 -0.1080       4 (A1) A                  ->    20 (B1) A                  
 -0.1054       4 (A1) A                  ->    14 (B1) A                  

              Summary of significant orbitals:

               Number  Type             Irrep      Energy
               6       Occ  Alpha       4 (A1)    -11.5639
               43      Vir  Alpha      12 (B1)     -0.0681
               47      Vir  Alpha      13 (B1)     -0.0485
               52      Vir  Alpha      14 (B1)     -0.0288
               56      Vir  Alpha      15 (B1)     -0.0228
               60      Vir  Alpha      16 (B1)     -0.0111
               65      Vir  Alpha      18 (B1)     -0.0028
               67      Vir  Alpha      19 (B1)      0.0224
               72      Vir  Alpha      20 (B1)      0.0529
               86      Vir  Alpha      24 (B1)      0.1152


 EOMEE transition 5/B1
 Total energy = -2792.72679340 a.u.  Excitation energy = 294.4554 eV.
 R0^2 = 0.0000  R1^2 = 0.7773  R2_CCVV^2 = 0.0000  R2_COVV^2 = 0.1114  Res^2 = 6.78e-05
 Conv-d = yes

 Amplitude    Transitions between orbitals
 -0.4254       5 (A1) A                  ->    14 (B1) A                  
  0.4128       5 (A1) A                  ->    13 (B1) A                  
  0.3324       5 (A1) A                  ->    15 (B1) A                  
  0.3170       5 (A1) A                  ->    20 (B1) A                  
 -0.2794       5 (A1) A                  ->    21 (B1) A                  
 -0.2179       5 (A1) A                  ->    18 (B1) A                  
  0.1860       5 (A1) A                  ->    16 (B1) A                  
 -0.1631       5 (A1) A                  ->    19 (B1) A                  

              Summary of significant orbitals:

               Number  Type             Irrep      Energy
               7       Occ  Alpha       5 (A1)    -11.4771
               47      Vir  Alpha      13 (B1)     -0.0485
               52      Vir  Alpha      14 (B1)     -0.0288
               56      Vir  Alpha      15 (B1)     -0.0228
               60      Vir  Alpha      16 (B1)     -0.0111
               65      Vir  Alpha      18 (B1)     -0.0028
               67      Vir  Alpha      19 (B1)      0.0224
               72      Vir  Alpha      20 (B1)      0.0529
               77      Vir  Alpha      21 (B1)      0.0751


 EOMEE transition 6/B1
 Total energy = -2792.72589939 a.u.  Excitation energy = 294.4797 eV.
 R0^2 = 0.0000  R1^2 = 0.7782  R2_CCVV^2 = 0.0016  R2_COVV^2 = 0.1101  Res^2 = 8.46e-05
 Conv-d = yes

 Amplitude    Transitions between orbitals
 -0.6972       4 (A1) B                  ->    13 (B1) B                  
 -0.2710       4 (A1) B                  ->    17 (B1) B                  
  0.2451       4 (A1) B                  ->    12 (B1) B                  
 -0.2218       4 (A1) B                  ->    16 (B1) B                  
 -0.1581       4 (A1) B                  ->    23 (B1) B                  
  0.1547       4 (A1) B                  ->    19 (B1) B                  
  0.1495       4 (A1) B                  ->    18 (B1) B                  

              Summary of significant orbitals:

               Number  Type             Irrep      Energy
               6       Occ  Beta        4 (A1)    -11.5564
               40      Vir  Beta       12 (B1)     -0.0682
               47      Vir  Beta       13 (B1)     -0.0485
               60      Vir  Beta       16 (B1)     -0.0110
               62      Vir  Beta       17 (B1)     -0.0052
               63      Vir  Beta       18 (B1)     -0.0030
               67      Vir  Beta       19 (B1)      0.0226
               82      Vir  Beta       23 (B1)      0.1016


      CVS-EOM-CCSD/MP2 left amplitudes will be solved using Davidson.
        Amplitudes will be solved using MOM  algorithm.
     Hard-coded thresholds: 
     LinDepThresh=1.00e-15  NormThresh=1.00e-06  ReorthogonThresh=1.00e-02

      Roots     MaxVec    MaxIter   Precond   Conv      Shift    
      6         1000      200       1         1.00e-04  1.00e+01  
 ------------------------------------------------------------------------------
      Iter ConvRoots NVecs ResNorm Current eigenvalues (eV)
 ------------------------------------------------------------------------------
      0    0      6     2.71e-02   292.5466   293.3101   293.4415   293.6911   294.4554   294.4797   
      1    0      12    9.48e+00   292.5467   293.3101   293.4414   293.6910   294.4552   294.4789   
      2    0      18    3.85e-03   292.5466   293.3101   293.4414   293.6910   294.4555   294.4789   
      3    0      24    2.60e-03   292.5466   293.3100   293.4414   293.6910   294.4552   294.4783   
      4    1      30    3.76e-03   292.5467   293.3100   293.4414*  293.6910   294.4550   294.4791   
      5    3      35    1.84e-04   292.5467*  293.3100   293.4414*  293.6910*  294.4547   294.4789   
      6    2      38    2.90e-04   292.5467*  293.3100   293.4414   293.6910*  294.4548   294.4788   
      7    3      42    4.78e-04   292.5467*  293.3100*  293.4414*  293.6910   294.4547   294.4791   
      8    4      45    9.35e-05   292.5467*  293.3100*  293.4414*  293.6910*  294.4548   294.4788   
      9    6      47    3.64e-05   292.5467*  293.3100*  293.4414*  293.6910*  294.4546*  294.4788*  

     Davidson procedure converged

        Solving for CVS-EOMEE-CCSD B2 transitions.

       EOMEE-CCSD-SINGLES right amplitudes will be solved using Davidson.
        Amplitudes will be solved using shifted  algorithm.
     Hard-coded thresholds: 
     LinDepThresh=1.00e-15  NormThresh=1.00e-06  ReorthogonThresh=1.00e-02

      Roots     MaxVec    MaxIter   Precond   Conv      Shift    
[...]
   ||gamma^AB||*||gamma^BA||: 0.768941

 ------------------------------------------------------------------------------
 State A: ccsd: 0/A1
 State B: cvs_eomee_ccsd/uhfref: 2/B1
 Transition dipole moment (a.u.):
   A->B: 0.009604 (X -0.009604, Y 0.000000, Z 0.000000)
   B->A: 0.009364 (X -0.009364, Y 0.000000, Z 0.000000)
 Oscillator strength (a.u.): 0.000646
 Norm of one-particle transition density matrix:
   A->B: 0.897727;   B->A: 0.857842
   ||gamma^AB||*||gamma^BA||: 0.770108

 ------------------------------------------------------------------------------
 State A: ccsd: 0/A1
 State B: cvs_eomee_ccsd/uhfref: 3/B1
 Transition dipole moment (a.u.):
   A->B: 0.002609 (X 0.002609, Y 0.000000, Z 0.000000)
   B->A: 0.002492 (X 0.002492, Y 0.000000, Z 0.000000)
 Oscillator strength (a.u.): 0.000047
 Norm of one-particle transition density matrix:
   A->B: 0.900010;   B->A: 0.848835
   ||gamma^AB||*||gamma^BA||: 0.763960

 ------------------------------------------------------------------------------
 State A: ccsd: 0/A1
 State B: cvs_eomee_ccsd/uhfref: 4/B1
 Transition dipole moment (a.u.):
   A->B: 0.002499 (X 0.002499, Y 0.000000, Z 0.000000)
   B->A: 0.002461 (X 0.002461, Y 0.000000, Z 0.000000)
 Oscillator strength (a.u.): 0.000044
 Norm of one-particle transition density matrix:
   A->B: 0.899451;   B->A: 0.846865
   ||gamma^AB||*||gamma^BA||: 0.761714

 ------------------------------------------------------------------------------
 State A: ccsd: 0/A1
 State B: cvs_eomee_ccsd/uhfref: 5/B1
 Transition dipole moment (a.u.):
   A->B: 0.013236 (X 0.013236, Y 0.000000, Z 0.000000)
   B->A: 0.013032 (X 0.013032, Y 0.000000, Z 0.000000)
 Oscillator strength (a.u.): 0.001244
 Norm of one-particle transition density matrix:
   A->B: 0.897421;   B->A: 0.855571
   ||gamma^AB||*||gamma^BA||: 0.767807

 ------------------------------------------------------------------------------
 State A: ccsd: 0/A1
 State B: cvs_eomee_ccsd/uhfref: 6/B1
 Transition dipole moment (a.u.):
   A->B: 0.006355 (X -0.006355, Y 0.000000, Z 0.000000)
   B->A: 0.005842 (X -0.005842, Y 0.000000, Z 0.000000)
 Oscillator strength (a.u.): 0.000268
 Norm of one-particle transition density matrix:
   A->B: 0.899387;   B->A: 0.847431
   ||gamma^AB||*||gamma^BA||: 0.762168

 ------------------------------------------------------------------------------
 State A: ccsd: 0/A1
 State B: cvs_eomee_ccsd/uhfref: 1/B2
 Transition dipole moment (a.u.):
   A->B: 0.052129 (X 0.000000, Y 0.052129, Z 0.000000)
   B->A: 0.054063 (X 0.000000, Y 0.054063, Z 0.000000)
 Oscillator strength (a.u.): 0.019518
 Norm of one-particle transition density matrix:
   A->B: 0.874839;   B->A: 0.918839
   ||gamma^AB||*||gamma^BA||: 0.803837

 ------------------------------------------------------------------------------
 State A: ccsd: 0/A1
 State B: cvs_eomee_ccsd/uhfref: 2/B2
 Transition dipole moment (a.u.):
   A->B: 0.062827 (X 0.000000, Y -0.062827, Z 0.000000)
   B->A: 0.062891 (X 0.000000, Y -0.062891, Z 0.000000)
 Oscillator strength (a.u.): 0.027753
 Norm of one-particle transition density matrix:
   A->B: 0.909101;   B->A: 0.901464
   ||gamma^AB||*||gamma^BA||: 0.819522

 ------------------------------------------------------------------------------
 State A: ccsd: 0/A1
 State B: cvs_eomee_ccsd/uhfref: 3/B2
 Transition dipole moment (a.u.):
   A->B: 0.058231 (X 0.000000, Y 0.058231, Z 0.000000)
   B->A: 0.060235 (X 0.000000, Y 0.060235, Z 0.000000)
 Oscillator strength (a.u.): 0.024680
 Norm of one-particle transition density matrix:
   A->B: 0.892696;   B->A: 0.903611
   ||gamma^AB||*||gamma^BA||: 0.806650

 ------------------------------------------------------------------------------
 State A: ccsd: 0/A1
 State B: cvs_eomee_ccsd/uhfref: 4/B2
 Transition dipole moment (a.u.):
   A->B: 0.056210 (X 0.000000, Y 0.056210, Z 0.000000)
   B->A: 0.053704 (X 0.000000, Y 0.053704, Z 0.000000)
 Oscillator strength (a.u.): 0.021381
 Norm of one-particle transition density matrix:
   A->B: 0.896708;   B->A: 0.867299
   ||gamma^AB||*||gamma^BA||: 0.777714

 ------------------------------------------------------------------------------
 State A: ccsd: 0/A1
 State B: cvs_eomee_ccsd/uhfref: 5/B2
 Transition dipole moment (a.u.):
   A->B: 0.022730 (X 0.000000, Y -0.022730, Z 0.000000)
   B->A: 0.023133 (X 0.000000, Y -0.023133, Z 0.000000)
 Oscillator strength (a.u.): 0.003768
 Norm of one-particle transition density matrix:
   A->B: 0.898240;   B->A: 0.862959
   ||gamma^AB||*||gamma^BA||: 0.775145

 ------------------------------------------------------------------------------
 State A: ccsd: 0/A1
 State B: cvs_eomee_ccsd/uhfref: 6/B2
 Transition dipole moment (a.u.):
   A->B: 0.023152 (X 0.000000, Y 0.023152, Z 0.000000)
   B->A: 0.022216 (X 0.000000, Y 0.022216, Z 0.000000)
 Oscillator strength (a.u.): 0.003690
 Norm of one-particle transition density matrix:
   A->B: 0.864894;   B->A: 0.835079
   ||gamma^AB||*||gamma^BA||: 0.722254


 All requested transition properties have been computed

 Transition Properties:   CPU 773.54 s  wall 2184.20 s

 Total ccman2 time:   CPU 322318.32 s  wall 152578.54 s

 74 A1   75 A1   53 B1   17 A2   33 B2   54 B1   34 B2   76 A1                 
  2.436   2.475   2.542   2.597   2.606   2.653   2.732   2.775
 18 A2   55 B1   77 A1   56 B1   78 A1   57 B1   79 A1   80 A1                 
  2.805   2.826   2.837   2.845   2.857   2.861   2.955   2.974
 81 A1   58 B1   82 A1   83 A1   59 B1   35 B2   84 A1   36 B2                 
  2.987   2.993   3.073   3.081   3.117   3.261   3.305   3.348
 19 A2   60 B1   37 B2   20 A2   61 B1   38 B2   85 A1   62 B1                 
  3.538   3.573   3.694   3.717   3.808   3.926   4.183   4.237
 63 B1   86 A1   64 B1   87 A1   88 A1   89 A1   65 B1   90 A1                 
  4.297   4.306   4.355   4.406   4.431   4.585   4.753   4.902
 91 A1   66 B1   21 A2   92 A1   39 B2   67 B1   93 A1   94 A1                 
  5.044   5.222   5.234   5.538   5.568   5.969   7.189   8.052
 68 B1   95 A1   69 B1   96 A1   70 B1   97 A1   98 A1   40 B2                 
  8.147   8.242  20.380  20.469  20.497  20.605  20.642  20.910
 71 B1   99 A1  100 A1  101 A1   72 B1  102 A1   73 B1  103 A1                 
 49.416  79.948  80.041  80.072  80.160  80.196  80.397 293.729
104 A1  105 A1  106 A1   74 B1  107 A1   75 B1  108 A1   41 B2                 
293.822 293.942 321.790 321.879 321.909 321.981 322.014 322.176
 76 B1  109 A1  110 A1  111 A1   77 B1  112 A1   78 B1  113 A1                 
*******1431.3591431.4441431.4711431.5301431.5611431.6958749.596
114 A1  115 A1  116 A1   79 B1  117 A1   80 B1  118 A1  119 A1                 
*******8749.7008749.7468749.7738749.881
120 A1   81 B1  121 A1   82 B1  122 A1                                         

 --------------------------------------------------------------
             Orbital Energies (a.u.) and Symmetries
 --------------------------------------------------------------

 Alpha MOs, Unrestricted
 -- Occupied --                  
-490.24  -65.37  -58.73  -58.73  -58.73  -11.56  -11.48  -11.47
  1 A1    2 A1    3 A1    1 B2    1 B1    4 A1    5 A1    2 B1                 
-11.473 -11.454 -11.454 -10.050  -7.663  -7.658  -7.653  -3.404
  6 A1    3 B1    7 A1    8 A1    9 A1    2 B2    4 B1   10 A1                 
 -3.401  -3.397  -3.389  -3.389  -1.413  -1.300  -1.246  -1.199
  3 B2    5 B1    1 A2   11 A1   12 A1   13 A1    6 B1   14 A1                 
 -1.062  -1.032  -0.922  -0.866  -0.844  -0.809  -0.793  -0.774
  7 B1   15 A1   16 A1    8 B1   17 A1    9 B1   18 A1    4 B2                 
 -0.723  -0.703  -0.656  -0.614  -0.581  -0.560
 10 B1   19 A1    5 B2   11 B1    6 B2    2 A2                                 
 -- Virtual --                   
 -0.123  -0.086  -0.084  -0.069  -0.068  -0.064  -0.061  -0.051
  7 B2   20 A1    3 A2   21 A1   12 B1    8 B2   22 A1   23 A1                 
 -0.048  -0.045  -0.045  -0.042  -0.031  -0.029  -0.026  -0.026
 13 B1    4 A2    9 B2   24 A1   25 A1   14 B1   26 A1   10 B2                 
 -0.024  -0.023  -0.021  -0.020  -0.013  -0.011  -0.007  -0.005
 27 A1   15 B1    5 A2   11 B2   28 A1   16 B1   29 A1   17 B1                 
 -0.003  -0.003  -0.003   0.008   0.022   0.028   0.034   0.039
 30 A1   12 B2   18 B1   31 A1   19 B1   32 A1   13 B2   14 B2                 
  0.048   0.053   0.054   0.058   0.064   0.067   0.075   0.084
  6 A2   20 B1   33 A1   34 A1   35 A1   15 B2   21 B1   16 B2                 
  0.086   0.092   0.093   0.102   0.102   0.103   0.109   0.115
 36 A1   22 B1    7 A2   23 B1   37 A1   17 B2   38 A1   24 B1                 
  0.127   0.129   0.135   0.150   0.155   0.165   0.167   0.177
 39 A1   40 A1   25 B1   41 A1   26 B1   18 B2   42 A1   27 B1                 
  0.191   0.208   0.224   0.243   0.253   0.261   0.270   0.325
 43 A1   28 B1   44 A1   29 B1   45 A1   30 B1   46 A1   47 A1                 
  0.335   0.346   0.357   0.436   0.436   0.451   0.472   0.474
 31 B1   48 A1   32 B1   33 B1   49 A1   19 B2   50 A1   34 B1                 
  0.521   0.536   0.542   0.550   0.553   0.560   0.571   0.575
 20 B2   51 A1   35 B1   21 B2   52 A1   36 B1    8 A2   53 A1                 
  0.597   0.599   0.602   0.624   0.644   0.679   0.689   0.718
  9 A2   22 B2   37 B1   54 A1   10 A2   23 B2   55 A1   24 B2                 
  0.723   0.734   0.749   0.752   0.766   0.791   0.829   0.842
 56 A1   38 B1   57 A1   39 B1   58 A1   59 A1   40 B1   60 A1                 
  0.886   0.888   0.897   0.904   0.910   0.930   0.981   0.999
 61 A1   41 B1   62 A1   42 B1   63 A1   43 B1   44 B1   25 B2                 
  1.003   1.005   1.090   1.098   1.106   1.131   1.160   1.283
 11 A2   64 A1   65 A1   45 B1   12 A2   26 B2   13 A2   66 A1                 
  1.299   1.408   1.522   1.563   1.587   1.607   1.624   1.630
 27 B2   67 A1   46 B1   68 A1   47 B1   69 A1   14 A2   28 B2                 
  1.669   1.710   1.715   1.737   1.783   1.812   1.850   1.913
 29 B2   70 A1   48 B1   71 A1   49 B1   30 B2   15 A2   50 B1                 
  1.945   1.991   2.005   2.024   2.038   2.042   2.057   2.118
 72 A1   16 A2   31 B2   51 B1   73 A1   52 B1   32 B2   74 A1                 
  2.130   2.141   2.164   2.171   2.250   2.386   2.414   2.426
 75 A1   53 B1   17 A2   33 B2   54 B1   34 B2   76 A1   18 A2                 
  2.471   2.537   2.597   2.606   2.653   2.730   2.772   2.805
 55 B1   77 A1   56 B1   78 A1   57 B1   79 A1   80 A1   81 A1                 
  2.826   2.837   2.842   2.844   2.857   2.952   2.955   2.983
 58 B1   82 A1   35 B2   83 A1   59 B1   84 A1   36 B2   19 A2                 
  2.992   3.046   3.081   3.117   3.250   3.300   3.345   3.532
 60 B1   37 B2   20 A2   61 B1   38 B2   85 A1   62 B1   63 B1                 
  3.573   3.693   3.713   3.805   3.919   4.182   4.232   4.295
 86 A1   64 B1   87 A1   88 A1   89 A1   65 B1   90 A1   91 A1                 
  4.302   4.351   4.402   4.427   4.585   4.752   4.897   5.039
 66 B1   21 A2   92 A1   39 B2   67 B1   93 A1   94 A1   68 B1                 
  5.216   5.232   5.529   5.568   5.965   7.186   8.046   8.146
 95 A1   69 B1   96 A1   70 B1   97 A1   98 A1   40 B2   71 B1                 
  8.242  20.376  20.467  20.497  20.601  20.643  20.908  49.415
 99 A1  100 A1  101 A1   72 B1  102 A1   73 B1  103 A1  104 A1                 
 79.947  80.040  80.072  80.158  80.196  80.397 293.727 293.822
105 A1  106 A1   74 B1  107 A1   75 B1  108 A1   41 B2   76 B1                 
293.942 321.790 321.879 321.909 321.980 322.014 322.1761028.387
109 A1  110 A1  111 A1   77 B1  112 A1   78 B1  113 A1  114 A1                 
*******1431.4441431.4711431.5301431.5611431.6958749.5968749.677
115 A1  116 A1   79 B1  117 A1   80 B1  118 A1  119 A1  120 A1                 
*******8749.7468749.7738749.881
 81 B1  121 A1   82 B1  122 A1                                                 

 Beta MOs, Unrestricted
 -- Occupied --                  
-490.24  -65.37  -58.73  -58.73  -58.73  -11.56  -11.47  -11.47
  1 A1    2 A1    3 A1    1 B1    1 B2    4 A1    2 B1    5 A1                 
-11.465 -11.461 -11.461 -10.049  -7.663  -7.653  -7.652  -3.403
  6 A1    3 B1    7 A1    8 A1    9 A1    4 B1    2 B2   10 A1                 
 -3.399  -3.397  -3.387  -3.387  -1.386  -1.277  -1.244  -1.169
  3 B2    5 B1    1 A2   11 A1   12 A1   13 A1    6 B1   14 A1                 
 -1.056  -1.019  -0.915  -0.860  -0.839  -0.809  -0.783  -0.720
  7 B1   15 A1   16 A1    8 B1   17 A1    9 B1   18 A1   10 B1                 
 -0.701  -0.690  -0.611  -0.599  -0.564
 19 A1    4 B2   11 B1    5 B2    2 A2                                         
 -- Virtual --                   
 -0.257  -0.086  -0.068  -0.068  -0.065  -0.065  -0.058  -0.054
  6 B2   20 A1   12 B1   21 A1    7 B2    3 A2   22 A1    8 B2                 
 -0.051  -0.048  -0.044  -0.040  -0.037  -0.031  -0.029  -0.025
 23 A1   13 B1    4 A2   24 A1    9 B2   25 A1   14 B1   26 A1                 
 -0.024  -0.024  -0.023  -0.020  -0.019  -0.012  -0.011  -0.007
 10 B2   27 A1   15 B1    5 A2   11 B2   28 A1   16 B1   29 A1                 
 -0.005  -0.003  -0.003  -0.003   0.009   0.023   0.029   0.032
 17 B1   18 B1   12 B2   30 A1   31 A1   19 B1   32 A1   13 B2                 
  0.048   0.049   0.053   0.056   0.059   0.066   0.075   0.077
 14 B2    6 A2   20 B1   33 A1   34 A1   35 A1   21 B1   15 B2                 
  0.086   0.091   0.096   0.098   0.102   0.106   0.110   0.111
 36 A1   22 B1    7 A2   16 B2   23 B1   37 A1   17 B2   38 A1                 
  0.115   0.129   0.130   0.135   0.152   0.155   0.168   0.177
 24 B1   39 A1   40 A1   25 B1   41 A1   26 B1   42 A1   27 B1                 
  0.185   0.192   0.208   0.227   0.247   0.260   0.261   0.279
 18 B2   43 A1   28 B1   44 A1   29 B1   45 A1   30 B1   46 A1                 
  0.326   0.334   0.350   0.357   0.437   0.439   0.459   0.474
 47 A1   31 B1   48 A1   32 B1   49 A1   33 B1   19 B2   34 B1                 
  0.479   0.539   0.551   0.555   0.555   0.564   0.570   0.583
 50 A1   51 A1   35 B1   36 B1   20 B2   21 B2   52 A1    8 A2                 
  0.586   0.598   0.604   0.626   0.635   0.647   0.683   0.700
 53 A1    9 A2   37 B1   54 A1   22 B2   10 A2   23 B2   55 A1                 
  0.726   0.736   0.737   0.751   0.754   0.771   0.797   0.829
 56 A1   38 B1   24 B2   57 A1   39 B1   58 A1   59 A1   40 B1                 
  0.849   0.888   0.888   0.905   0.905   0.917   0.932   0.987
 60 A1   61 A1   41 B1   42 B1   62 A1   63 A1   43 B1   44 B1                 
  1.006   1.012   1.029   1.094   1.100   1.109   1.152   1.177
 25 B2   64 A1   11 A2   65 A1   45 B1   12 A2   26 B2   13 A2                 
  1.286   1.319   1.417   1.524   1.572   1.588   1.614   1.633
 66 A1   27 B2   67 A1   46 B1   68 A1   47 B1   69 A1   28 B2                 
  1.635   1.681   1.709   1.719   1.748   1.792   1.817   1.850
 14 A2   29 B2   48 B1   70 A1   71 A1   49 B1   30 B2   15 A2                 
  1.912   1.947   2.009   2.012   2.021   2.043   2.048   2.072
 50 B1   72 A1   16 A2   31 B2   51 B1   52 B1   73 A1   32 B2                 
  2.122   2.141   2.147   2.167   2.181   2.251   2.393   2.415
 74 A1   75 A1   53 B1   17 A2   33 B2   54 B1   34 B2   76 A1                 
  2.436   2.475   2.542   2.597   2.606   2.653   2.732   2.775
 18 A2   55 B1   77 A1   56 B1   78 A1   57 B1   79 A1   80 A1                 
  2.805   2.826   2.837   2.845   2.857   2.861   2.955   2.974
 81 A1   58 B1   82 A1   83 A1   59 B1   35 B2   84 A1   36 B2                 
  2.987   2.993   3.073   3.081   3.117   3.261   3.305   3.348
 19 A2   60 B1   37 B2   20 A2   61 B1   38 B2   85 A1   62 B1                 
  3.538   3.573   3.694   3.717   3.808   3.926   4.183   4.237
 63 B1   86 A1   64 B1   87 A1   88 A1   89 A1   65 B1   90 A1                 
  4.297   4.306   4.355   4.406   4.431   4.585   4.753   4.902
 91 A1   66 B1   21 A2   92 A1   39 B2   67 B1   93 A1   94 A1                 
  5.044   5.222   5.234   5.538   5.568   5.969   7.189   8.052
 68 B1   95 A1   69 B1   96 A1   70 B1   97 A1   98 A1   40 B2                 
  8.147   8.242  20.380  20.469  20.497  20.605  20.642  20.910
 71 B1   99 A1  100 A1  101 A1   72 B1  102 A1   73 B1  103 A1                 
 49.416  79.948  80.041  80.072  80.160  80.196  80.397 293.729
104 A1  105 A1  106 A1   74 B1  107 A1   75 B1  108 A1   41 B2                 
293.822 293.942 321.790 321.879 321.909 321.981 322.014 322.176
 76 B1  109 A1  110 A1  111 A1   77 B1  112 A1   78 B1  113 A1                 
*******1431.3591431.4441431.4711431.5301431.5611431.6958749.596
114 A1  115 A1  116 A1   79 B1  117 A1   80 B1  118 A1  119 A1                 
*******8749.7008749.7468749.7738749.881
120 A1   81 B1  121 A1   82 B1  122 A1                                         
 --------------------------------------------------------------

          Ground-State Mulliken Net Atomic Charges

     Atom                 Charge (a.u.)    Spin (a.u.)
  --------------------------------------------------------
      1 H                     0.338640      -0.031697
      2 C                    -0.181632       0.293947
      3 C                    -0.174781      -0.453596
      4 H                     0.311768       0.024469
      5 C                    -0.289268       0.795433
      6 H                     0.286390      -0.046928
      7 C                    -0.174781      -0.453596
      8 H                     0.311768       0.024469
      9 C                    -0.181632       0.293947
Archival summary:
1\1\n-62-23-4\SP\ProcedureUnspecified\BasisUnspecified\r165(1+,2)\malop\WedDec1211:48:022018WedDec1211:48:022018\0\\#,ProcedureUnspecified,BasisUnspecified,\\1,2\Br\C,1,1.884\C,2,1.3922,1,119.37\H,3,1.0802,2,120.072,1,-0,0\C,2,1.3922,1,119.37,3,180,0\H,5,1.0802,2,120.072,1,-0,0\C,3,1.39311,2,119.031,1,-180,0\H,7,1.08133,3,119.353,2,-180,0\C,5,1.39311,2,119.031,1,-180,0\H,9,1.08133,5,119.353,2,-180,0\C,7,1.39319,3,120.463,2,-0,0\H,11,1.08081,7,120.124,3,-180,0\\HF=-2802.24504\\@

 Total job time:  152753.92s(wall), 323216.20s(cpu) 
 Wed Dec 12 11:48:02 2018

        *************************************************************
        *                                                           *
        *  Thank you very much for using Q-Chem.  Have a nice day.  *
        *                                                           *
        *************************************************************


     10 H                     0.338640      -0.031697
     11 C                     0.454056       0.438923
     12 Br                   -0.039169       0.146324
  --------------------------------------------------------
  Sum of atomic charges =     1.000000
  Sum of spin   charges =     1.000000

 -----------------------------------------------------------------
                    Cartesian Multipole Moments
 -----------------------------------------------------------------
    Charge (ESU x 10^10)
                 4.8032
    Dipole Moment (Debye)
         X       0.0000      Y      -0.0000      Z      -5.4159
       Tot       5.4159
    Quadrupole Moments (Debye-Ang)
        XX     -39.5500     XY       0.0000     YY     -53.4105
        XZ       0.0000     YZ      -0.0000     ZZ     -23.9131
    Octopole Moments (Debye-Ang^2)
       XXX      -0.0000    XXY       0.0000    XYY      -0.0000
       YYY      -0.0000    XXZ       1.1443    XYZ      -0.0000
       YYZ      22.7528    XZZ       0.0000    YZZ       0.0000
       ZZZ      -0.5964
    Hexadecapole Moments (Debye-Ang^3)
      XXXX    -232.8719   XXXY       0.0000   XXYY     -64.8348
      XYYY       0.0000   YYYY     -59.5809   XXXZ       0.0000
      XXYZ      -0.0000   XYYZ       0.0000   YYYZ       0.0000
      XXZZ    -183.5749   XYZZ       0.0000   YYZZ    -196.4477
      XZZZ       0.0000   YZZZ       0.0000   ZZZZ    -743.2722
 -----------------------------------------------------------------
