[Molden Format]
[Atoms] (Angs)
  H      1    1      2.47503475      0.00000000     -0.00000000
  C      2    6      1.39359294      0.00000000     -0.00000000
  C      3    6      0.69679647      1.20688689      0.00000000
  H      4    1      1.23751738      2.14344297      0.00000000
  C      5    6     -0.69679647      1.20688689      0.00000000
  H      6    1     -1.23751738      2.14344297      0.00000000
  C      7    6     -1.39359294     -0.00000000      0.00000000
  H      8    1     -2.47503475     -0.00000000      0.00000000
  C      9    6     -0.69679647     -1.20688689     -0.00000000
  H     10    1     -1.23751738     -2.14344297     -0.00000000
  C     11    6      0.69679647     -1.20688689     -0.00000000
  H     12    1      1.23751738     -2.14344297     -0.00000000
[GTO]
1    0
S    3    1.000000
   3.38650000E+01    2.54938000E-02 
   5.09479000E+00    1.90373000E-01 
   1.15879000E+00    8.52161000E-01 
S    1    1.000000
   3.25840000E-01    1.00000000E+00 
S    1    1.000000
   1.02741000E-01    1.00000000E+00 
S    1    1.000000
   3.60000000E-02    1.00000000E+00 
P    1    1.000000
   7.50000000E-01    1.00000000E+00 

2    0
S    1    1.000000
   4.56324000E+03    1.96665000E-03 
S    1    1.000000
   6.82024000E+02    1.52306000E-02 
S    1    1.000000
   1.54973000E+02    7.61269000E-02 
S    1    1.000000
   4.44553000E+01    2.60801000E-01 
S    1    1.000000
   1.30290000E+01    6.16462000E-01 
S    1    1.000000
   1.82773000E+00    2.21006000E-01 
SP   3    1.000000
   2.09642000E+01    1.14660000E-01   4.02487000E-02 
   4.80331000E+00    9.19999000E-01   2.37594000E-01 
   1.45933000E+00   -3.03068000E-03   8.15854000E-01 
SP   1    1.000000
   4.83456000E-01    1.00000000E+00   1.00000000E+00 
SP   1    1.000000
   1.45585000E-01    1.00000000E+00   1.00000000E+00 
SP   1    1.000000
   4.38000000E-02    1.00000000E+00   1.00000000E+00 
SP   1    1.000000
   1.31927711E-02    1.00000000E+00   1.00000000E+00 
D    1    1.000000
   6.26000000E-01    1.00000000E+00 

3    0
S    1    1.000000
   4.56324000E+03    1.96665000E-03 
S    1    1.000000
   6.82024000E+02    1.52306000E-02 
S    1    1.000000
   1.54973000E+02    7.61269000E-02 
S    1    1.000000
   4.44553000E+01    2.60801000E-01 
S    1    1.000000
   1.30290000E+01    6.16462000E-01 
S    1    1.000000
   1.82773000E+00    2.21006000E-01 
SP   3    1.000000
   2.09642000E+01    1.14660000E-01   4.02487000E-02 
   4.80331000E+00    9.19999000E-01   2.37594000E-01 
   1.45933000E+00   -3.03068000E-03   8.15854000E-01 
SP   1    1.000000
   4.83456000E-01    1.00000000E+00   1.00000000E+00 
SP   1    1.000000
   1.45585000E-01    1.00000000E+00   1.00000000E+00 
SP   1    1.000000
   4.38000000E-02    1.00000000E+00   1.00000000E+00 
SP   1    1.000000
   1.31927711E-02    1.00000000E+00   1.00000000E+00 
D    1    1.000000
   6.26000000E-01    1.00000000E+00 

4    0
S    3    1.000000
   3.38650000E+01    2.54938000E-02 
   5.09479000E+00    1.90373000E-01 
   1.15879000E+00    8.52161000E-01 
S    1    1.000000
   3.25840000E-01    1.00000000E+00 
S    1    1.000000
   1.02741000E-01    1.00000000E+00 
S    1    1.000000
   3.60000000E-02    1.00000000E+00 
P    1    1.000000
   7.50000000E-01    1.00000000E+00 

5    0
S    1    1.000000
   4.56324000E+03    1.96665000E-03 
S    1    1.000000
   6.82024000E+02    1.52306000E-02 
S    1    1.000000
   1.54973000E+02    7.61269000E-02 
S    1    1.000000
   4.44553000E+01    2.60801000E-01 
S    1    1.000000
   1.30290000E+01    6.16462000E-01 
S    1    1.000000
   1.82773000E+00    2.21006000E-01 
SP   3    1.000000
   2.09642000E+01    1.14660000E-01   4.02487000E-02 
   4.80331000E+00    9.19999000E-01   2.37594000E-01 
   1.45933000E+00   -3.03068000E-03   8.15854000E-01 
SP   1    1.000000
   4.83456000E-01    1.00000000E+00   1.00000000E+00 
SP   1    1.000000
   1.45585000E-01    1.00000000E+00   1.00000000E+00 
SP   1    1.000000
   4.38000000E-02    1.00000000E+00   1.00000000E+00 
SP   1    1.000000
   1.31927711E-02    1.00000000E+00   1.00000000E+00 
D    1    1.000000
   6.26000000E-01    1.00000000E+00 

6    0
S    3    1.000000
   3.38650000E+01    2.54938000E-02 
   5.09479000E+00    1.90373000E-01 
   1.15879000E+00    8.52161000E-01 
S    1    1.000000
   3.25840000E-01    1.00000000E+00 
S    1    1.000000
   1.02741000E-01    1.00000000E+00 
S    1    1.000000
   3.60000000E-02    1.00000000E+00 
P    1    1.000000
   7.50000000E-01    1.00000000E+00 

7    0
S    1    1.000000
   4.56324000E+03    1.96665000E-03 
S    1    1.000000
   6.82024000E+02    1.52306000E-02 
S    1    1.000000
   1.54973000E+02    7.61269000E-02 
S    1    1.000000
   4.44553000E+01    2.60801000E-01 
S    1    1.000000
   1.30290000E+01    6.16462000E-01 
S    1    1.000000
   1.82773000E+00    2.21006000E-01 
SP   3    1.000000
   2.09642000E+01    1.14660000E-01   4.02487000E-02 
   4.80331000E+00    9.19999000E-01   2.37594000E-01 
   1.45933000E+00   -3.03068000E-03   8.15854000E-01 
SP   1    1.000000
   4.83456000E-01    1.00000000E+00   1.00000000E+00 
SP   1    1.000000
   1.45585000E-01    1.00000000E+00   1.00000000E+00 
SP   1    1.000000
   4.38000000E-02    1.00000000E+00   1.00000000E+00 
SP   1    1.000000
   1.31927711E-02    1.00000000E+00   1.00000000E+00 
D    1    1.000000
   6.26000000E-01    1.00000000E+00 

8    0
S    3    1.000000
   3.38650000E+01    2.54938000E-02 
   5.09479000E+00    1.90373000E-01 
   1.15879000E+00    8.52161000E-01 
S    1    1.000000
   3.25840000E-01    1.00000000E+00 
S    1    1.000000
   1.02741000E-01    1.00000000E+00 
S    1    1.000000
   3.60000000E-02    1.00000000E+00 
P    1    1.000000
   7.50000000E-01    1.00000000E+00 

9    0
S    1    1.000000
   4.56324000E+03    1.96665000E-03 
S    1    1.000000
   6.82024000E+02    1.52306000E-02 
S    1    1.000000
   1.54973000E+02    7.61269000E-02 
S    1    1.000000
   4.44553000E+01    2.60801000E-01 
S    1    1.000000
   1.30290000E+01    6.16462000E-01 
S    1    1.000000
   1.82773000E+00    2.21006000E-01 
SP   3    1.000000
   2.09642000E+01    1.14660000E-01   4.02487000E-02 
   4.80331000E+00    9.19999000E-01   2.37594000E-01 
   1.45933000E+00   -3.03068000E-03   8.15854000E-01 
SP   1    1.000000
   4.83456000E-01    1.00000000E+00   1.00000000E+00 
SP   1    1.000000
   1.45585000E-01    1.00000000E+00   1.00000000E+00 
SP   1    1.000000
   4.38000000E-02    1.00000000E+00   1.00000000E+00 
SP   1    1.000000
   1.31927711E-02    1.00000000E+00   1.00000000E+00 
D    1    1.000000
   6.26000000E-01    1.00000000E+00 

10    0
S    3    1.000000
   3.38650000E+01    2.54938000E-02 
   5.09479000E+00    1.90373000E-01 
   1.15879000E+00    8.52161000E-01 
S    1    1.000000
   3.25840000E-01    1.00000000E+00 
S    1    1.000000
   1.02741000E-01    1.00000000E+00 
S    1    1.000000
   3.60000000E-02    1.00000000E+00 
P    1    1.000000
   7.50000000E-01    1.00000000E+00 

11    0
S    1    1.000000
   4.56324000E+03    1.96665000E-03 
S    1    1.000000
   6.82024000E+02    1.52306000E-02 
S    1    1.000000
   1.54973000E+02    7.61269000E-02 
S    1    1.000000
   4.44553000E+01    2.60801000E-01 
S    1    1.000000
   1.30290000E+01    6.16462000E-01 
S    1    1.000000
   1.82773000E+00    2.21006000E-01 
SP   3    1.000000
   2.09642000E+01    1.14660000E-01   4.02487000E-02 
   4.80331000E+00    9.19999000E-01   2.37594000E-01 
   1.45933000E+00   -3.03068000E-03   8.15854000E-01 
SP   1    1.000000
   4.83456000E-01    1.00000000E+00   1.00000000E+00 
SP   1    1.000000
   1.45585000E-01    1.00000000E+00   1.00000000E+00 
SP   1    1.000000
   4.38000000E-02    1.00000000E+00   1.00000000E+00 
SP   1    1.000000
   1.31927711E-02    1.00000000E+00   1.00000000E+00 
D    1    1.000000
   6.26000000E-01    1.00000000E+00 

12    0
S    3    1.000000
   3.38650000E+01    2.54938000E-02 
   5.09479000E+00    1.90373000E-01 
   1.15879000E+00    8.52161000E-01 
S    1    1.000000
   3.25840000E-01    1.00000000E+00 
S    1    1.000000
   1.02741000E-01    1.00000000E+00 
S    1    1.000000
   3.60000000E-02    1.00000000E+00 
P    1    1.000000
   7.50000000E-01    1.00000000E+00 

[MO]
Sym=X
Ene= 1.997344
Spin=Alpha
Occup=1
     1   -1.006047713422e-01
     2   -1.457619189525e-01
     3    3.593368050251e-04
     4    4.697438993156e-02
     5    1.843190200957e-02
     6   -5.002788638416e-10
     7    4.743891109055e-15
     8    1.209120753810e-04
     9    9.123297846541e-04
    10    4.852628477244e-03
    11    1.581301266744e-02
    12    3.964314711268e-02
    13    1.578945577253e-02
    14    1.040840261659e-01
    15   -5.494269120723e-02
    16   -9.950755415379e-09
    17    6.658777868501e-14
    18   -2.958964123597e-01
    19   -7.815755365913e-02
    20   -1.598078294625e-08
    21    1.173902486860e-13
    22   -1.810627740442e-01
    23   -6.027942370147e-02
    24   -4.908564867377e-09
    25    7.162791563676e-14
    26    2.433701167932e-01
    27   -1.187113924377e-01
    28   -2.100986795178e-09
    29    6.410388270290e-14
    30    2.400195934881e-02
    31   -2.378460598071e-03
    32    7.289124232615e-09
    33    7.145294293274e-13
    34    1.153299287448e-02
    35   -1.317421373059e-14
    36   -1.929071206320e-15
    37   -5.488818592585e-03
    38    1.592050923022e-09
    39    3.633782010407e-05
    40    2.742644219827e-04
    41    1.457248696659e-03
    42    4.769685603671e-03
    43    1.214323879622e-02
    44    4.284687730080e-03
    45    2.997332759685e-02
    46   -9.523471361156e-03
    47    2.436025521474e-02
    48    6.995244418861e-14
    49   -8.434139212688e-02
    50   -1.360374649828e-02
    51    3.819767588525e-02
    52    1.175722968572e-13
    53   -2.103556744426e-02
    54    4.966644356929e-03
    55    7.730802063903e-03
    56    8.963355774317e-14
    57   -1.219032006403e-01
    58    2.509418250461e-02
    59    4.707234686090e-02
    60   -3.185123951912e-14
    61   -1.123060681888e-02
    62   -8.203654169679e-04
    63    3.616442919036e-03
    64   -8.043154827165e-13
    65    4.390561789495e-03
    66   -1.015702017709e-14
    67   -8.205452242904e-15
    68   -1.622495112587e-03
    69    7.616917436150e-03
    70   -6.449588501822e-04
    71    3.050929174873e-03
    72    6.520320633924e-03
    73   -2.589605306269e-02
    74    7.029478471070e-04
    75    2.004065376562e-03
    76    4.677478364737e-15
    77    3.633787026996e-05
    78    2.742648132270e-04
    79    1.457250611240e-03
    80    4.769692280371e-03
    81    1.214325430337e-02
    82    4.284693074785e-03
    83    2.997334191125e-02
    84    9.523462041272e-03
    85    2.436025116986e-02
    86    9.244616650056e-14
    87   -8.434135512526e-02
    88    1.360373166473e-02
    89    3.819766998138e-02
    90    1.555273661612e-13
    91   -2.103553632054e-02
    92   -4.966646709145e-03
    93    7.730794401616e-03
    94    1.211324419816e-13
    95   -1.219032038559e-01
    96   -2.509416587609e-02
    97    4.707232391781e-02
    98    1.464098198845e-14
    99   -1.123060520526e-02
   100    8.203710555238e-04
   101    3.616447922582e-03
   102    8.135281673588e-13
   103    4.390560719205e-03
   104    3.964857147238e-15
   105   -1.457567217596e-14
   106   -1.622496132135e-03
   107   -7.616915706646e-03
   108   -6.449509600636e-04
   109    3.050940072942e-03
   110    6.520323154686e-03
   111   -2.589600110544e-02
   112   -7.029474231276e-04
   113    2.004063593818e-03
   114    8.519412264976e-15
   115    1.209120755245e-04
   116    9.123297857642e-04
   117    4.852628482781e-03
   118    1.581301268645e-02
   119    3.964314715753e-02
   120    1.578945578889e-02
   121    1.040840262255e-01
   122    5.494269120630e-02
   123    9.976059627283e-09
   124    9.858625954361e-14
   125   -2.958964123549e-01
   126    7.815755365893e-02
   127    1.602958349994e-08
   128    1.665463632911e-13
   129   -1.810627740387e-01
   130    6.027942370128e-02
   131    4.886518441164e-09
   132    1.398480794192e-13
   133    2.433701184628e-01
   134    1.187113924696e-01
   135    4.042399782803e-09
   136   -2.838160538519e-14
   137    2.400195939362e-02
   138    2.378460586855e-03
   139   -7.237110282040e-09
   140   -7.585116842062e-13
   141    1.153299287436e-02
   142    1.723279923404e-14
   143   -8.508848564961e-16
   144   -5.488818592260e-03
   145    1.596871284486e-09
   146   -1.006047713412e-01
   147   -1.457619189495e-01
   148    3.593367921890e-04
   149    4.697438996659e-02
   150   -1.843190200891e-02
   151    5.034948689743e-10
   152    6.218931474656e-15
   153    3.633781890598e-05
   154    2.742644127058e-04
   155    1.457248650441e-03
   156    4.769685444849e-03
   157    1.214323842191e-02
   158    4.284687594297e-03
   159    2.997332710407e-02
   160    9.523471378624e-03
   161   -2.436025521273e-02
   162    9.851196321013e-14
   163   -8.434139218636e-02
   164    1.360374652335e-02
   165   -3.819767587874e-02
   166    1.714510562501e-13
   167   -2.103556749596e-02
   168   -4.966644341143e-03
   169   -7.730802090349e-03
   170    1.199178824065e-13
   171   -1.219031967428e-01
   172   -2.509418264186e-02
   173   -4.707234674526e-02
   174    8.096269323241e-14
   175   -1.123060670338e-02
   176    8.203654087756e-04
   177   -3.616442929598e-03
   178    6.742045459109e-13
   179    4.390561792938e-03
   180    3.336804321556e-15
   181    1.528763019827e-14
   182   -1.622495112527e-03
   183    7.616917434688e-03
   184   -6.449588718655e-04
   185    3.050929150479e-03
   186    6.520320567280e-03
   187   -2.589605299227e-02
   188   -7.029478487133e-04
   189   -2.004065379518e-03
   190    7.989885937081e-15
   191    3.633786908933e-05
   192    2.742648040880e-04
   193    1.457250565703e-03
   194    4.769692123913e-03
   195    1.214325393464e-02
   196    4.284692941195e-03
   197    2.997334142646e-02
   198   -9.523462058557e-03
   199   -2.436025116801e-02
   200    7.868928684346e-14
   201   -8.434135518925e-02
   202   -1.360373168828e-02
   203   -3.819766997602e-02
   204    1.305310512009e-13
   205   -2.103553637096e-02
   206    4.966646678710e-03
   207   -7.730794418097e-03
   208    1.164934228276e-13
   209   -1.219032016531e-01
   210    2.509416736918e-02
   211   -4.707232297061e-02
   212   -8.943376791485e-14
   213   -1.123060513294e-02
   214   -8.203710128464e-04
   215   -3.616447902588e-03
   216   -6.618934440152e-13
   217    4.390560722349e-03
   218   -1.253786826888e-14
   219    8.402648008960e-15
   220   -1.622496131194e-03
   221   -7.616915705635e-03
   222   -6.449509814765e-04
   223    3.050940046444e-03
   224    6.520323137671e-03
   225   -2.589600101498e-02
   226    7.029474253941e-04
   227   -2.004063596602e-03
   228    5.711756202756e-15
Sym=X
Ene= 1.997252
Spin=Alpha
Occup=1
     1    1.061318843963e-01
     2    1.560400196929e-01
     3    1.557989109867e-03
     4   -3.657501229499e-02
     5   -1.927711663216e-02
     6    7.833867765533e-10
     7    4.630299397077e-14
     8   -1.274623829845e-04
     9   -9.644039866229e-04
    10   -5.098528319293e-03
    11   -1.670053784915e-02
    12   -4.146025967246e-02
    13   -1.516286802453e-02
    14   -1.057168347887e-01
    15    6.678384451557e-02
    16    3.404219281124e-09
    17    1.117225559333e-13
    18    2.823319726999e-01
    19    9.689904826972e-02
    20    4.300393135428e-09
    21    2.827593789225e-13
    22    1.868265905770e-01
    23    5.661074460065e-02
    24   -3.807352567712e-10
    25   -2.581867529662e-13
    26    1.034909612430e-01
    27    5.868722306196e-02
    28   -4.957133061359e-08
    29    2.466125467721e-11
    30    4.666299106064e-03
    31   -5.580943841108e-03
    32    6.957578450191e-10
    33   -4.286078125201e-11
    34   -1.077569016006e-02
    35    3.375533728658e-14
    36    6.879096386030e-16
    37    5.917811360502e-03
    38    6.893824679190e-10
    39   -3.132776709669e-05
    40   -2.372947926384e-04
    41   -1.252124836667e-03
    42   -4.123907280488e-03
    43   -1.032735786122e-02
    44   -3.222137119993e-03
    45   -2.522122558919e-02
    46    2.168256051050e-02
    47   -1.260928522915e-02
    48   -6.678011950981e-14
    49    6.595784102649e-02
    50    3.234324955549e-02
    51   -2.061418333645e-02
    52   -2.016337762566e-13
    53    4.975946539875e-03
    54    1.057244401962e-02
    55    2.195670042376e-03
    56    3.208791334036e-13
    57    5.250826985476e-02
    58   -3.764030676209e-02
    59    5.053851256840e-02
    60   -2.466565283756e-11
    61    2.573263364805e-03
    62    2.653565137827e-03
    63   -2.941210725924e-03
    64    4.286548687951e-11
    65   -3.706853568185e-03
    66   -2.037322030900e-14
    67   -3.610827280211e-14
    68    4.900828389636e-04
    69   -9.979350979475e-03
    70    9.097576416745e-03
    71    1.163840056552e-02
    72   -1.153763449509e-02
    73   -2.002794039113e-02
    74   -1.090841552832e-03
    75   -3.621320315165e-03
    76   -4.298863556231e-14
    77    3.132775621407e-05
    78    2.372947084235e-04
    79    1.252124415599e-03
    80    4.123905840092e-03
    81    1.032735451374e-02
    82    3.222136286939e-03
    83    2.522122047645e-02
    84    2.168255489898e-02
    85    1.260928102180e-02
    86    1.304445515723e-13
    87   -6.595784057186e-02
    88    3.234324004390e-02
    89    2.061417531427e-02
    90    3.014102917701e-13
    91   -4.975937821564e-03
    92    1.057243855260e-02
    93   -2.195676394410e-03
    94   -2.419008377286e-13
    95   -5.250811548229e-02
    96   -3.764035341520e-02
    97   -5.053852948770e-02
    98    2.466716869451e-11
    99   -2.573258035255e-03
   100    2.653566156973e-03
   101    2.941209015960e-03
   102   -4.284988515555e-11
   103    3.706851926047e-03
   104   -1.803221688728e-14
   105    2.700866392085e-14
   106   -4.900833730985e-04
   107   -9.979348842348e-03
   108   -9.097577064569e-03
   109   -1.163839950622e-02
   110    1.153763143128e-02
   111    2.002793222732e-02
   112   -1.090841000369e-03
   113    3.621319931101e-03
   114    4.545888390670e-14
   115    1.274623829679e-04
   116    9.644039864971e-04
   117    5.098528318662e-03
   118    1.670053784699e-02
   119    4.146025966739e-02
   120    1.516286802282e-02
   121    1.057168347824e-01
   122    6.678384451425e-02
   123    3.415682285309e-09
   124   -6.489357433981e-14
   125   -2.823319727027e-01
   126    9.689904826761e-02
   127    4.323997050789e-09
   128   -1.948175922017e-13
   129   -1.868265905875e-01
   130    5.661074459577e-02
   131   -3.909363996381e-10
   132    3.247627458961e-13
   133   -1.034909604491e-01
   134    5.868722317684e-02
   135   -4.927891492717e-08
   136   -2.465979095223e-11
   137   -4.666299043924e-03
   138   -5.580943806745e-03
   139    6.673117731729e-10
   140    4.284130577235e-11
   141    1.077569016041e-02
   142    4.191660637309e-14
   143   -2.510516511463e-16
   144   -5.917811360048e-03
   145   -6.884089803066e-10
   146   -1.061318843959e-01
   147   -1.560400196906e-01
   148   -1.557989129680e-03
   149    3.657501227944e-02
   150   -1.927711663228e-02
   151    7.831958966822e-10
   152   -4.245781251124e-14
   153    3.132776695298e-05
   154    2.372947915180e-04
   155    1.252124831116e-03
   156    4.123907261339e-03
   157    1.032735781639e-02
   158    3.222137104070e-03
   159    2.522122553462e-02
   160    2.168256051958e-02
   161   -1.260928522523e-02
   162    1.193641151027e-13
   163   -6.595784106215e-02
   164    3.234324956869e-02
   165   -2.061418332743e-02
   166    2.929323785015e-13
   167   -4.975946564848e-03
   168    1.057244404199e-02
   169    2.195670047656e-03
   170   -2.526001291389e-13
   171   -5.250826990134e-02
   172   -3.764030686852e-02
   173    5.053851266958e-02
   174    2.466579861568e-11
   175   -2.573263367158e-03
   176    2.653565109247e-03
   177   -2.941210687589e-03
   178   -4.284185220666e-11
   179    3.706853569831e-03
   180   -2.075182176104e-14
   181   -2.648887992085e-14
   182   -4.900828380868e-04
   183    9.979350978492e-03
   184   -9.097576429679e-03
   185   -1.163840057733e-02
   186    1.153763450575e-02
   187    2.002794044458e-02
   188   -1.090841552930e-03
   189   -3.621320316631e-03
   190    4.698270470873e-14
   191   -3.132775610173e-05
   192   -2.372947075578e-04
   193   -1.252124411279e-03
   194   -4.123905825239e-03
   195   -1.032735447878e-02
   196   -3.222136273999e-03
   197   -2.522122043394e-02
   198    2.168255490564e-02
   199    1.260928101816e-02
   200   -7.940520928359e-14
   201    6.595784059541e-02
   202    3.234324005500e-02
   203    2.061417530560e-02
   204   -2.193784488120e-13
   205    4.975937851210e-03
   206    1.057243856844e-02
   207   -2.195676397710e-03
   208    2.963324399888e-13
   209    5.250811469436e-02
   210   -3.764035360909e-02
   211   -5.053852974943e-02
   212   -2.464799467075e-11
   213    2.573257972383e-03
   214    2.653566187170e-03
   215    2.941208974528e-03
   216    4.284811165463e-11
   217   -3.706851927674e-03
   218   -2.074095412787e-14
   219    3.368413335925e-14
   220    4.900833727337e-04
   221    9.979348841686e-03
   222    9.097577073837e-03
   223    1.163839951043e-02
   224   -1.153763141669e-02
   225   -2.002793222719e-02
   226   -1.090841000294e-03
   227    3.621319932009e-03
   228   -4.212723868707e-14
Sym=X
Ene= 1.995125
Spin=Alpha
Occup=1
     1    6.909128107639e-02
     2    1.050977525246e-01
     3    1.719797992688e-02
     4   -3.835643605171e-02
     5   -9.119293110236e-03
     6    5.751408376642e-10
     7   -6.264305407669e-15
     8   -2.941725339990e-06
     9   -2.445296938575e-05
    10   -1.053744183831e-04
    11   -4.096709670390e-04
    12   -5.552786785219e-04
    13    1.551826486069e-03
    14   -4.276219925057e-04
    15    8.871893710365e-02
    16    8.975208549972e-09
    17   -8.404308275957e-14
    18   -1.120440900621e-02
    19    1.344786374037e-01
    20    1.392761778037e-08
    21   -1.452954740812e-13
    22    4.077457810020e-02
    23    7.582539863080e-02
    24   -3.300839782123e-09
    25   -9.901251460028e-14
    26   -2.355688865910e-01
    27    1.015628189298e-01
    28    2.249423390781e-08
    29   -4.468015283327e-14
    30   -2.293094630639e-02
    31    6.966085132488e-03
    32   -1.253634968695e-08
    33   -6.949017502585e-13
    34    2.819731134012e-03
    35    1.731308833118e-14
    36   -1.107980161686e-15
    37    1.287997940751e-02
    38   -1.175881226651e-09
    39    9.777369253101e-05
    40    7.398179227136e-04
    41    3.914270453816e-03
    42    1.286217379489e-02
    43    3.223748513632e-02
    44    9.047046689882e-03
    45    8.095254581575e-02
    46    7.110289727298e-03
    47   -1.220375630093e-04
    48   -7.982682100805e-14
    49   -2.218064578764e-01
    50    1.362725327200e-02
    51    1.200104184463e-03
    52   -1.369990857103e-13
    53   -1.063988847680e-01
    54   -1.623468498250e-02
    55   -8.509597481099e-03
    56   -1.107440161387e-13
    57    1.066384483879e-01
    58   -2.987184375138e-02
    59   -5.547452722186e-02
    60   -1.745990552357e-16
    61    1.007417928530e-02
    62   -4.979764367318e-04
    63   -1.475679777611e-03
    64    7.497336220358e-13
    65    1.001530699883e-02
    66    9.663808100849e-15
    67    1.262607939093e-14
    68    2.415157952776e-03
    69   -4.201877372029e-03
    70   -4.244170251635e-02
    71   -6.088774176133e-02
    72    4.135649538211e-03
    73    3.191348337936e-02
    74    3.702803491478e-03
    75    6.996855165198e-03
    76   -6.111521888563e-15
    77    9.777377410374e-05
    78    7.398185519640e-04
    79    3.914273620532e-03
    80    1.286218457007e-02
    81    3.223751064466e-02
    82    9.047056421818e-03
    83    8.095258556286e-02
    84   -7.110281925377e-03
    85   -1.220327706612e-04
    86   -9.650673507965e-14
    87   -2.218064835754e-01
    88   -1.362724208205e-02
    89    1.200111481503e-03
    90   -1.799378460141e-13
    91   -1.063989283335e-01
    92    1.623469155955e-02
    93   -8.509580585503e-03
    94   -1.357966845131e-13
    95    1.066384809632e-01
    96    2.987179728960e-02
    97   -5.547453842119e-02
    98    2.246709103659e-14
    99    1.007418027333e-02
   100    4.979685017134e-04
   101   -1.475693726288e-03
   102   -8.377015338879e-13
   103    1.001530845460e-02
   104   -4.571003839453e-15
   105    1.693080273555e-14
   106    2.415158050692e-03
   107    4.201875037214e-03
   108   -4.244170720635e-02
   109   -6.088774833863e-02
   110    4.135650185521e-03
   111    3.191342845484e-02
   112   -3.702803667456e-03
   113    6.996856563911e-03
   114   -8.009032805254e-15
   115   -2.941725229795e-06
   116   -2.445296853184e-05
   117   -1.053744141329e-04
   118   -4.096709524282e-04
   119   -5.552786441757e-04
   120    1.551826498443e-03
   121   -4.276219472466e-04
   122   -8.871893710301e-02
   123   -8.985522170491e-09
   124   -1.129548105135e-13
   125   -1.120440899958e-02
   126   -1.344786374038e-01
   127   -1.394009444314e-08
   128   -1.903539271918e-13
   129    4.077457809873e-02
   130   -7.582539863372e-02
   131    3.327482485464e-09
   132   -1.545429126340e-13
   133   -2.355688894620e-01
   134   -1.015628190143e-01
   135   -2.576139442475e-08
   136   -3.131105099129e-14
   137   -2.293094638676e-02
   138   -6.966085117867e-03
   139    1.246772679341e-08
   140    8.723720950052e-13
   141    2.819731133369e-03
   142   -1.855654049471e-14
   143    3.968612275448e-15
   144    1.287997940768e-02
   145   -1.172233126726e-09
   146    6.909128107794e-02
   147    1.050977525222e-01
   148    1.719797994002e-02
   149   -3.835643614626e-02
   150    9.119293110176e-03
   151   -5.742679002429e-10
   152   -1.075717306978e-14
   153    9.777369160266e-05
   154    7.398179155249e-04
   155    3.914270418000e-03
   156    1.286217367182e-02
   157    3.223748484648e-02
   158    9.047046585065e-03
   159    8.095254543115e-02
   160   -7.110289756398e-03
   161    1.220375657232e-04
   162   -1.162036466419e-13
   163   -2.218064579163e-01
   164   -1.362725332775e-02
   165   -1.200104188450e-03
   166   -1.904926513452e-13
   167   -1.063988847662e-01
   168    1.623468497525e-02
   169    8.509597521676e-03
   170   -1.661410418175e-13
   171    1.066384417953e-01
   172    2.987184397249e-02
   173    5.547452708408e-02
   174   -6.371348286702e-15
   175    1.007417908819e-02
   176    4.979764382693e-04
   177    1.475679785127e-03
   178   -8.371224301841e-13
   179    1.001530699936e-02
   180   -9.856317310375e-15
   181   -1.697529609790e-14
   182    2.415157949396e-03
   183   -4.201877374537e-03
   184   -4.244170250970e-02
   185   -6.088774174898e-02
   186    4.135649650021e-03
   187    3.191348330935e-02
   188   -3.702803495631e-03
   189   -6.996855167933e-03
   190   -9.377838638883e-15
   191    9.777377316188e-05
   192    7.398185446639e-04
   193    3.914273584160e-03
   194    1.286218444511e-02
   195    3.223751035045e-02
   196    9.047056315135e-03
   197    8.095258517291e-02
   198    7.110281951785e-03
   199    1.220327719039e-04
   200   -9.032517639884e-14
   201   -2.218064836183e-01
   202    1.362724212998e-02
   203   -1.200111488539e-03
   204   -1.709109027150e-13
   205   -1.063989283513e-01
   206   -1.623469151887e-02
   207    8.509580604619e-03
   208   -1.325325703636e-13
   209    1.066384772764e-01
   210   -2.987179987899e-02
   211    5.547453689357e-02
   212    3.280681800806e-14
   213    1.007418015425e-02
   214   -4.979685634603e-04
   215    1.475693692541e-03
   216    7.441924773642e-13
   217    1.001530845626e-02
   218    8.165044819723e-15
   219   -1.378170736903e-14
   220    2.415158047027e-03
   221    4.201875039370e-03
   222   -4.244170720154e-02
   223   -6.088774832702e-02
   224    4.135650223801e-03
   225    3.191342841272e-02
   226    3.702803670411e-03
   227   -6.996856568156e-03
   228   -5.712523728124e-15
Sym=X
Ene= 1.994836
Spin=Alpha
Occup=1
     1    6.454916878986e-10
     2   -1.252440045291e-09
     3    1.351828883967e-09
     4    9.052894775798e-09
     5    2.405404635707e-10
     6   -1.433313483755e-03
     7    8.320022357938e-14
     8    1.196411752060e-12
     9    8.713461909433e-12
    10    4.915563698979e-11
    11    1.512411112628e-10
    12    4.688613241037e-10
    13    7.241441455372e-10
    14    9.929688721969e-10
    15    2.267997893422e-09
    16   -3.672855761201e-02
    17    1.682734154276e-13
    18   -6.153829801109e-09
    19    3.791483209134e-09
    20   -5.793321840973e-02
    21    4.418203832980e-13
    22    1.985664321139e-09
    23    4.413296553385e-09
    24   -1.443367630342e-02
    25   -4.935576791658e-13
    26    1.900791781885e-07
    27   -7.076913317541e-09
    28    6.702604502393e-02
    29    4.516450240729e-11
    30    6.190496176880e-09
    31   -3.527196813968e-09
    32   -4.914474767304e-03
    33   -7.994660707665e-11
    34   -1.159759330071e-09
    35    6.804371255315e-14
    36   -2.289710505517e-15
    37   -6.003389034937e-10
    38    6.747295972624e-03
    39    9.524881855671e-05
    40    7.204674299086e-04
    41    3.818967980796e-03
    42    1.253340862311e-02
    43    3.125813902634e-02
    44    7.207451776205e-03
    45    8.169696133225e-02
    46   -1.319115964440e-02
    47   -4.055038805757e-02
    48   -1.671338237695e-13
    49   -2.236060074907e-01
    50   -1.560518621223e-02
    51   -5.578354388406e-02
    52   -4.435287343707e-13
    53   -1.158800767500e-01
    54   -1.738376178072e-02
    55   -3.216200729661e-02
    56    4.712676872003e-13
    57   -9.023708858758e-02
    58   -5.245607539369e-02
    59   -2.518727146908e-02
    60   -4.505843240089e-11
    61   -4.179070352630e-03