[Molden Format]
[Atoms] (Angs)
  H      1    1      2.47503475      0.00000000     -0.00000000
  C      2    6      1.39359294      0.00000000     -0.00000000
  C      3    6      0.69679647      1.20688689      0.00000000
  H      4    1      1.23751738      2.14344297      0.00000000
  C      5    6     -0.69679647      1.20688689      0.00000000
  H      6    1     -1.23751738      2.14344297      0.00000000
  C      7    6     -1.39359294     -0.00000000      0.00000000
  H      8    1     -2.47503475     -0.00000000      0.00000000
  C      9    6     -0.69679647     -1.20688689     -0.00000000
  H     10    1     -1.23751738     -2.14344297     -0.00000000
  C     11    6      0.69679647     -1.20688689     -0.00000000
  H     12    1      1.23751738     -2.14344297     -0.00000000
[GTO]
1    0
S    3    1.000000
   3.38650000E+01    2.54938000E-02 
   5.09479000E+00    1.90373000E-01 
   1.15879000E+00    8.52161000E-01 
S    1    1.000000
   3.25840000E-01    1.00000000E+00 
S    1    1.000000
   1.02741000E-01    1.00000000E+00 
S    1    1.000000
   3.60000000E-02    1.00000000E+00 
P    1    1.000000
   7.50000000E-01    1.00000000E+00 

2    0
S    1    1.000000
   4.56324000E+03    1.96665000E-03 
S    1    1.000000
   6.82024000E+02    1.52306000E-02 
S    1    1.000000
   1.54973000E+02    7.61269000E-02 
S    1    1.000000
   4.44553000E+01    2.60801000E-01 
S    1    1.000000
   1.30290000E+01    6.16462000E-01 
S    1    1.000000
   1.82773000E+00    2.21006000E-01 
SP   3    1.000000
   2.09642000E+01    1.14660000E-01   4.02487000E-02 
   4.80331000E+00    9.19999000E-01   2.37594000E-01 
   1.45933000E+00   -3.03068000E-03   8.15854000E-01 
SP   1    1.000000
   4.83456000E-01    1.00000000E+00   1.00000000E+00 
SP   1    1.000000
   1.45585000E-01    1.00000000E+00   1.00000000E+00 
SP   1    1.000000
   4.38000000E-02    1.00000000E+00   1.00000000E+00 
SP   1    1.000000
   1.31927711E-02    1.00000000E+00   1.00000000E+00 
D    1    1.000000
   6.26000000E-01    1.00000000E+00 

3    0
S    1    1.000000
   4.56324000E+03    1.96665000E-03 
S    1    1.000000
   6.82024000E+02    1.52306000E-02 
S    1    1.000000
   1.54973000E+02    7.61269000E-02 
S    1    1.000000
   4.44553000E+01    2.60801000E-01 
S    1    1.000000
   1.30290000E+01    6.16462000E-01 
S    1    1.000000
   1.82773000E+00    2.21006000E-01 
SP   3    1.000000
   2.09642000E+01    1.14660000E-01   4.02487000E-02 
   4.80331000E+00    9.19999000E-01   2.37594000E-01 
   1.45933000E+00   -3.03068000E-03   8.15854000E-01 
SP   1    1.000000
   4.83456000E-01    1.00000000E+00   1.00000000E+00 
SP   1    1.000000
   1.45585000E-01    1.00000000E+00   1.00000000E+00 
SP   1    1.000000
   4.38000000E-02    1.00000000E+00   1.00000000E+00 
SP   1    1.000000
   1.31927711E-02    1.00000000E+00   1.00000000E+00 
D    1    1.000000
   6.26000000E-01    1.00000000E+00 

4    0
S    3    1.000000
   3.38650000E+01    2.54938000E-02 
   5.09479000E+00    1.90373000E-01 
   1.15879000E+00    8.52161000E-01 
S    1    1.000000
   3.25840000E-01    1.00000000E+00 
S    1    1.000000
   1.02741000E-01    1.00000000E+00 
S    1    1.000000
   3.60000000E-02    1.00000000E+00 
P    1    1.000000
   7.50000000E-01    1.00000000E+00 

5    0
S    1    1.000000
   4.56324000E+03    1.96665000E-03 
S    1    1.000000
   6.82024000E+02    1.52306000E-02 
S    1    1.000000
   1.54973000E+02    7.61269000E-02 
S    1    1.000000
   4.44553000E+01    2.60801000E-01 
S    1    1.000000
   1.30290000E+01    6.16462000E-01 
S    1    1.000000
   1.82773000E+00    2.21006000E-01 
SP   3    1.000000
   2.09642000E+01    1.14660000E-01   4.02487000E-02 
   4.80331000E+00    9.19999000E-01   2.37594000E-01 
   1.45933000E+00   -3.03068000E-03   8.15854000E-01 
SP   1    1.000000
   4.83456000E-01    1.00000000E+00   1.00000000E+00 
SP   1    1.000000
   1.45585000E-01    1.00000000E+00   1.00000000E+00 
SP   1    1.000000
   4.38000000E-02    1.00000000E+00   1.00000000E+00 
SP   1    1.000000
   1.31927711E-02    1.00000000E+00   1.00000000E+00 
D    1    1.000000
   6.26000000E-01    1.00000000E+00 

6    0
S    3    1.000000
   3.38650000E+01    2.54938000E-02 
   5.09479000E+00    1.90373000E-01 
   1.15879000E+00    8.52161000E-01 
S    1    1.000000
   3.25840000E-01    1.00000000E+00 
S    1    1.000000
   1.02741000E-01    1.00000000E+00 
S    1    1.000000
   3.60000000E-02    1.00000000E+00 
P    1    1.000000
   7.50000000E-01    1.00000000E+00 

7    0
S    1    1.000000
   4.56324000E+03    1.96665000E-03 
S    1    1.000000
   6.82024000E+02    1.52306000E-02 
S    1    1.000000
   1.54973000E+02    7.61269000E-02 
S    1    1.000000
   4.44553000E+01    2.60801000E-01 
S    1    1.000000
   1.30290000E+01    6.16462000E-01 
S    1    1.000000
   1.82773000E+00    2.21006000E-01 
SP   3    1.000000
   2.09642000E+01    1.14660000E-01   4.02487000E-02 
   4.80331000E+00    9.19999000E-01   2.37594000E-01 
   1.45933000E+00   -3.03068000E-03   8.15854000E-01 
SP   1    1.000000
   4.83456000E-01    1.00000000E+00   1.00000000E+00 
SP   1    1.000000
   1.45585000E-01    1.00000000E+00   1.00000000E+00 
SP   1    1.000000
   4.38000000E-02    1.00000000E+00   1.00000000E+00 
SP   1    1.000000
   1.31927711E-02    1.00000000E+00   1.00000000E+00 
D    1    1.000000
   6.26000000E-01    1.00000000E+00 

8    0
S    3    1.000000
   3.38650000E+01    2.54938000E-02 
   5.09479000E+00    1.90373000E-01 
   1.15879000E+00    8.52161000E-01 
S    1    1.000000
   3.25840000E-01    1.00000000E+00 
S    1    1.000000
   1.02741000E-01    1.00000000E+00 
S    1    1.000000
   3.60000000E-02    1.00000000E+00 
P    1    1.000000
   7.50000000E-01    1.00000000E+00 

9    0
S    1    1.000000
   4.56324000E+03    1.96665000E-03 
S    1    1.000000
   6.82024000E+02    1.52306000E-02 
S    1    1.000000
   1.54973000E+02    7.61269000E-02 
S    1    1.000000
   4.44553000E+01    2.60801000E-01 
S    1    1.000000
   1.30290000E+01    6.16462000E-01 
S    1    1.000000
   1.82773000E+00    2.21006000E-01 
SP   3    1.000000
   2.09642000E+01    1.14660000E-01   4.02487000E-02 
   4.80331000E+00    9.19999000E-01   2.37594000E-01 
   1.45933000E+00   -3.03068000E-03   8.15854000E-01 
SP   1    1.000000
   4.83456000E-01    1.00000000E+00   1.00000000E+00 
SP   1    1.000000
   1.45585000E-01    1.00000000E+00   1.00000000E+00 
SP   1    1.000000
   4.38000000E-02    1.00000000E+00   1.00000000E+00 
SP   1    1.000000
   1.31927711E-02    1.00000000E+00   1.00000000E+00 
D    1    1.000000
   6.26000000E-01    1.00000000E+00 

10    0
S    3    1.000000
   3.38650000E+01    2.54938000E-02 
   5.09479000E+00    1.90373000E-01 
   1.15879000E+00    8.52161000E-01 
S    1    1.000000
   3.25840000E-01    1.00000000E+00 
S    1    1.000000
   1.02741000E-01    1.00000000E+00 
S    1    1.000000
   3.60000000E-02    1.00000000E+00 
P    1    1.000000
   7.50000000E-01    1.00000000E+00 

11    0
S    1    1.000000
   4.56324000E+03    1.96665000E-03 
S    1    1.000000
   6.82024000E+02    1.52306000E-02 
S    1    1.000000
   1.54973000E+02    7.61269000E-02 
S    1    1.000000
   4.44553000E+01    2.60801000E-01 
S    1    1.000000
   1.30290000E+01    6.16462000E-01 
S    1    1.000000
   1.82773000E+00    2.21006000E-01 
SP   3    1.000000
   2.09642000E+01    1.14660000E-01   4.02487000E-02 
   4.80331000E+00    9.19999000E-01   2.37594000E-01 
   1.45933000E+00   -3.03068000E-03   8.15854000E-01 
SP   1    1.000000
   4.83456000E-01    1.00000000E+00   1.00000000E+00 
SP   1    1.000000
   1.45585000E-01    1.00000000E+00   1.00000000E+00 
SP   1    1.000000
   4.38000000E-02    1.00000000E+00   1.00000000E+00 
SP   1    1.000000
   1.31927711E-02    1.00000000E+00   1.00000000E+00 
D    1    1.000000
   6.26000000E-01    1.00000000E+00 

12    0
S    3    1.000000
   3.38650000E+01    2.54938000E-02 
   5.09479000E+00    1.90373000E-01 
   1.15879000E+00    8.52161000E-01 
S    1    1.000000
   3.25840000E-01    1.00000000E+00 
S    1    1.000000
   1.02741000E-01    1.00000000E+00 
S    1    1.000000
   3.60000000E-02    1.00000000E+00 
P    1    1.000000
   7.50000000E-01    1.00000000E+00 

[MO]
Sym=X
Ene= 1.996159
Spin=Alpha
Occup=1
     1   -3.625805820218e-02
     2   -4.895707973696e-02
     3    7.777201213992e-03
     4    1.877983448518e-03
     5    8.483623546658e-03
     6    3.068784628547e-11
     7    1.350341738252e-16
     8    9.055921148693e-05
     9    6.838619910458e-04
    10    3.632125984532e-03
    11    1.188140013917e-02
    12    2.995214664238e-02
    13    1.010337470912e-02
    14    7.638086273469e-02
    15    4.004841222950e-03
    16   -2.737255044698e-10
    17    4.380427538008e-15
    18   -2.150422537201e-01
    19    1.022075474138e-02
    20   -6.824424735501e-10
    21    7.623316592810e-15
    22   -9.623980660337e-02
    23   -8.229633344369e-03
    24   -2.435691914768e-09
    25    6.209163292642e-15
    26   -3.312410388269e-03
    27   -7.164977590155e-03
    28    3.683021048284e-10
    29    2.824097845296e-14
    30    4.324742330299e-05
    31    1.517425044522e-03
    32   -1.428615280380e-09
    33    1.431772393928e-13
    34    9.732301635192e-03
    35   -5.038738202169e-16
    36   -2.728652825900e-15
    37    3.485212075757e-03
    38    2.725591901136e-10
    39    9.056947543856e-05
    40    6.839395933941e-04
    41    3.632536977671e-03
    42    1.188274353175e-02
    43    2.995547962208e-02
    44    1.010464888635e-02
    45    7.638954127295e-02
    46    2.001060404789e-03
    47    3.460436002448e-03
    48    3.995073347688e-15
    49   -2.150661698887e-01
    50    5.108632619929e-03
    51    8.840146819624e-03
    52    5.418145867639e-15
    53   -9.625771736066e-02
    54   -4.117909306490e-03
    55   -7.133017845425e-03
    56   -1.500161007530e-15
    57   -3.273266288475e-03
    58   -3.591550323650e-03
    59   -6.221085870271e-03
    60   -2.521994702622e-14
    61    4.703365158273e-05
    62    7.588651353550e-04
    63    1.313647349949e-03
    64   -1.831887023751e-13
    65    9.733103784917e-03
    66   -1.223675337413e-15
    67   -9.429444529110e-17
    68   -1.742295976634e-03
    69    3.017027962330e-03
    70   -3.626857578575e-02
    71   -4.897265380058e-02
    72    7.776749471554e-03
    73    1.885798569802e-03
    74    4.242757057827e-03
    75    7.348534739143e-03
    76   -4.642705691446e-16
    77    9.056963411290e-05
    78    6.839408221465e-04
    79    3.632543101994e-03
    80    1.188276456241e-02
    81    2.995552918174e-02
    82    1.010466706238e-02
    83    7.638960719329e-02
    84   -2.001060828895e-03
    85    3.460436177842e-03
    86    9.632457200457e-15
    87   -2.150661631927e-01
    88   -5.108633604627e-03
    89    8.840147133382e-03
    90    2.694406275584e-15
    91   -9.625772698751e-02
    92    4.117905584423e-03
    93   -7.133016267203e-03
    94    1.533954120854e-14
    95   -3.273263391738e-03
    96    3.591552360128e-03
    97   -6.221089839584e-03
    98    1.936702401309e-14
    99    4.703404500199e-05
   100   -7.588648464135e-04
   101    1.313643959071e-03
   102    1.397933679490e-13
   103    9.733103968804e-03
   104   -3.087656019432e-16
   105   -6.094072265339e-16
   106   -1.742296506977e-03
   107   -3.017028330065e-03
   108   -3.626857433196e-02
   109   -4.897265085144e-02
   110    7.776748342055e-03
   111    1.885804205265e-03
   112   -4.242756909465e-03
   113    7.348534540231e-03
   114    1.563939709888e-15
   115    9.055921163284e-05
   116    6.838619921753e-04
   117    3.632125990161e-03
   118    1.188140015850e-02
   119    2.995214668791e-02
   120    1.010337472562e-02
   121    7.638086279481e-02
   122   -4.004841223481e-03
   123    2.837333340683e-10
   124    6.478469909907e-15
   125   -2.150422537123e-01
   126   -1.022075474188e-02
   127    7.049003599359e-10
   128    1.135242644192e-14
   129   -9.623980660106e-02
   130    8.229633342899e-03
   131    2.445249964995e-09
   132    9.848613347891e-15
   133   -3.312410651316e-03
   134    7.164977563392e-03
   135   -6.236855459635e-10
   136   -4.162971532019e-14
   137    4.324741507934e-05
   138   -1.517425046848e-03
   139    1.436273561357e-09
   140   -7.236124249348e-14
   141    9.732301634781e-03
   142    1.890078473240e-15
   143    1.366686720396e-15
   144    3.485212076104e-03
   145    2.776676112199e-10
   146   -3.625805820044e-02
   147   -4.895707973546e-02
   148    7.777201210989e-03
   149    1.877983415878e-03
   150   -8.483623546147e-03
   151   -2.812597969902e-11
   152   -2.146490505974e-15
   153    9.056947428624e-05
   154    6.839395844706e-04
   155    3.632536933224e-03
   156    1.188274337902e-02
   157    2.995547926249e-02
   158    1.010464875585e-02
   159    7.638954079896e-02
   160   -2.001060408007e-03
   161   -3.460435996210e-03
   162    7.211879885822e-15
   163   -2.150661699522e-01
   164   -5.108632629931e-03
   165   -8.840146810408e-03
   166    1.950571252180e-14
   167   -9.625771738428e-02
   168    4.117909303520e-03
   169    7.133017848483e-03
   170    2.135647350757e-15
   171   -3.273266823493e-03
   172    3.591550320049e-03
   173    6.221085867895e-03
   174    6.415803503006e-14
   175    4.703363221714e-05
   176   -7.588651457345e-04
   177   -1.313647357231e-03
   178    2.668892678552e-14
   179    9.733103788383e-03
   180   -2.224025715077e-15
   181    4.131394214230e-16
   182   -1.742295977989e-03
   183    3.017027958872e-03
   184   -3.626857580015e-02
   185   -4.897265381441e-02
   186    7.776749465794e-03
   187    1.885798569053e-03
   188   -4.242757061321e-03
   189   -7.348534742077e-03
   190    9.833267296911e-16
   191    9.056963281647e-05
   192    6.839408121050e-04
   193    3.632543051967e-03
   194    1.188276439054e-02
   195    2.995552877702e-02
   196    1.010466691542e-02
   197    7.638960665976e-02
   198    2.001060830405e-03
   199   -3.460436172286e-03
   200    1.095126809748e-14
   201   -2.150661632629e-01
   202    5.108633611126e-03
   203   -8.840147126329e-03
   204    4.111983971811e-15
   205   -9.625772702110e-02
   206   -4.117905578309e-03
   207    7.133016267551e-03
   208    1.571184464060e-14
   209   -3.273263664584e-03
   210   -3.591552596166e-03
   211    6.221089733464e-03
   212   -5.908081999052e-14
   213    4.703403374137e-05
   214    7.588648520373e-04
   215   -1.313643964765e-03
   216   -6.744513685136e-14
   217    9.733103972780e-03
   218   -4.818033499213e-15
   219   -1.269329533059e-15
   220   -1.742296507709e-03
   221   -3.017028326936e-03
   222   -3.626857434767e-02
   223   -4.897265086746e-02
   224    7.776748339463e-03
   225    1.885804241218e-03
   226    4.242756912781e-03
   227   -7.348534543979e-03
   228    1.244272469141e-15
Sym=X
Ene= 1.995611
Spin=Alpha
Occup=1
     1    2.262518715403e-09
     2    1.448470047632e-09
     3    8.600159020099e-10
     4    5.184303335848e-09
     5   -4.276423786851e-11
     6   -1.124789100835e-03
     7    7.558540884370e-14
     8   -1.225247882497e-12
     9   -9.540340923853e-12
    10   -4.829397281976e-11
    11   -1.664142316158e-10
    12   -3.350042271816e-10
    13    4.494215379315e-10
    14   -1.151389603532e-09
    15    2.992511100702e-09
    16   -3.096367428058e-02
    17    1.524824185469e-13
    18    9.371786948252e-11
    19    4.794079426727e-09
    20   -4.788789537812e-02
    21    4.001048743400e-13
    22    8.498279990148e-09
    23    4.040404608615e-09
    24   -9.706714311465e-03
    25   -4.482397715418e-13
    26    1.670110582049e-07
    27   -2.962026869073e-09
    28    6.900690272696e-02
    29    4.109533950679e-11
    30    5.595121542949e-09
    31   -3.486789953661e-09
    32   -4.469205700644e-03
    33   -7.278865279629e-11
    34   -1.807134283039e-09
    35    6.205582404591e-14
    36   -1.820671991199e-15
    37   -9.204040075249e-10
    38    5.873657911422e-03
    39    9.904726969728e-05
    40    7.498061391370e-04
    41    3.963669609667e-03
    42    1.301939063498e-02
    43    3.238985592051e-02
    44    9.174547039486e-03
    45    8.255834785555e-02
    46   -7.597430013605e-03
    47   -4.412439794862e-02
    48   -1.537881521117e-13
    49   -2.206484837475e-01
    50   -8.103135505373e-03
    51   -6.192540025397e-02
    52   -4.074161282443e-13
    53   -1.176809506823e-01
    54   -1.474369572387e-02
    55   -3.524455323349e-02
    56    4.304801759713e-13
    57   -9.364790187262e-02
    58   -5.470740500670e-02
    59   -2.574882282852e-02
    60   -4.102209509419e-11
    61   -4.323892311497e-03
    62    4.082848322295e-03
    63    2.602336158154e-03
    64    7.269886661302e-11
    65    9.050871991419e-03
    66   -3.184331271809e-14
    67   -5.633714215809e-14
    68   -3.443160434996e-03
    69    8.987421038854e-05
    70   -7.048456369460e-02
    71   -1.019515553720e-01
    72    6.070994007357e-03
    73    3.393148199202e-02
    74    7.581761533691e-03
    75    1.200714759266e-02
    76   -7.737710133641e-14
    77    9.904733982651e-05
    78    7.498066812628e-04
    79    3.963672323714e-03
    80    1.301939991906e-02
    81    3.238987786854e-02
    82    9.174554937076e-03
    83    8.255837921949e-02
    84    7.597432869454e-03
    85   -4.412440265318e-02
    86    1.578296974533e-13
    87   -2.206484909271e-01
    88    8.103133782787e-03
    89   -6.192540543158e-02
    90    4.046470064356e-13
    91   -1.176809680372e-01
    92    1.474368797060e-02
    93   -3.524455617287e-02
    94   -4.189519111254e-13
    95   -9.364808701033e-02
    96    5.470728519625e-02
    97   -2.574894936320e-02
    98    4.097594456535e-11
    99   -4.323898398646e-03
   100   -4.082846674821e-03
   101    2.602333413310e-03
   102   -7.262823564184e-11
   103    9.050871222459e-03
   104   -3.179581609721e-14
   105    5.278338936419e-14
   106   -3.443163993885e-03
   107   -8.987355666500e-05
   108   -7.048457078513e-02
   109   -1.019515781713e-01
   110    6.071009050364e-03
   111    3.393152872063e-02
   112   -7.581763290308e-03
   113    1.200715187406e-02
   114    7.610035710670e-14
   115    7.513696619546e-13
   116    5.863129383689e-12
   117    3.001878239041e-11
   118    1.035470119459e-10
   119    1.880055988251e-10
   120   -5.004044821248e-10
   121    9.626901049603e-10
   122    3.005091045682e-09
   123   -3.096367428080e-02
   124   -1.480896469275e-13
   125   -1.731188727940e-10
   126    4.816255185455e-09
   127   -4.788789537927e-02
   128   -3.892933332619e-13
   129   -8.477754447162e-09
   130    4.077346774506e-09
   131   -9.706714294878e-03
   132    4.322060759295e-13
   133   -1.673438412748e-07
   134   -2.876667253799e-09
   135    6.900690192734e-02
   136   -4.100804367485e-11
   137   -5.610105343131e-09
   138   -3.618009428264e-09
   139   -4.469205625484e-03
   140    7.267528873418e-11
   141    1.810237101096e-09
   142    6.253223267367e-14
   143    4.747772666336e-16
   144    9.151979134259e-10
   145   -5.873657911342e-03
   146   -2.289384906631e-09
   147   -1.470029859895e-09
   148   -8.897013710544e-10
   149   -5.109897310202e-09
   150   -4.308788815927e-11
   151   -1.124789101097e-03
   152   -7.503611384512e-14
   153   -9.904726996067e-05
   154   -7.498061411821e-04
   155   -3.963669619828e-03
   156   -1.301939066995e-02
   157   -3.238985600206e-02
   158   -9.174547066767e-03
   159   -8.255834796029e-02
   160   -7.597430012453e-03
   161   -4.412439795179e-02
   162    1.572901804160e-13
   163    2.206484837002e-01
   164   -8.103135504131e-03
   165   -6.192540026609e-02
   166    3.989321881707e-13
   167    1.176809506284e-01
   168   -1.474369572272e-02
   169   -3.524455323259e-02
   170   -4.329513829595e-13
   171    9.364790247839e-02
   172   -5.470740430847e-02
   173   -2.574882304714e-02
   174    4.108752474735e-11
   175    4.323892364335e-03
   176    4.082848475556e-03
   177    2.602336070505e-03
   178   -7.275961193508e-11
   179   -9.050871991325e-03
   180   -2.959124193509e-14
   181   -4.949426858649e-14
   182    3.443160434643e-03
   183   -8.987420962069e-05
   184    7.048456368984e-02
   185    1.019515553586e-01
   186   -6.070993962485e-03
   187   -3.393148191598e-02
   188    7.581761531808e-03
   189    1.200714758988e-02
   190    7.332178857357e-14
   191   -9.904734006136e-05
   192   -7.498066830784e-04
   193   -3.963672332737e-03
   194   -1.301939995012e-02
   195   -3.238987794093e-02
   196   -9.174554960907e-03
   197   -8.255837931337e-02
   198    7.597432870442e-03
   199   -4.412440265965e-02
   200   -1.455110997855e-13
   201    2.206484908895e-01
   202    8.103133786583e-03
   203   -6.192540544827e-02
   204   -3.907561870984e-13
   205    1.176809679990e-01
   206    1.474368795549e-02
   207   -3.524455620538e-02
   208    4.545676185818e-13
   209    9.364808672488e-02
   210    5.470728615038e-02
   211   -2.574894909117e-02
   212   -4.112931769836e-11
   213    4.323898358381e-03
   214   -4.082846791867e-03
   215    2.602333497990e-03
   216    7.283418540250e-11
   217   -9.050871222413e-03
   218   -2.970048084912e-14
   219    5.358870065093e-14
   220    3.443163993175e-03
   221    8.987355510180e-05
   222    7.048457078329e-02
   223    1.019515781628e-01
   224   -6.071009067331e-03
   225   -3.393152885559e-02
   226   -7.581763288541e-03
   227    1.200715187183e-02
   228   -7.438684273999e-14
Sym=X
Ene= 1.995611
Spin=Alpha
Occup=1
     1   -8.138370248554e-02
     2   -1.177161696445e-01
     3    7.011425025248e-03
     4    3.918063839049e-02
     5    1.638383129260e-02
     6   -6.013347119751e-10
     7   -6.436874761295e-14
     8    1.143669698690e-04
     9    8.657792745018e-04
    10    4.576732139475e-03
    11    1.503311539181e-02
    12    3.739963712477e-02
    13    1.059318478864e-02
    14    9.532748475705e-02
    15   -4.850722347936e-02
    16   -3.478161146607e-09
    17   -1.507579201654e-13
    18   -2.547750391578e-01
    19   -6.659824508103e-02
    20   -3.320623910198e-09
    21   -3.741113441209e-13
    22   -1.358763255048e-01
    23   -4.375435871860e-02
    24    2.859487049908e-10
    25    3.119367067875e-13
    26   -1.081350817915e-01
    27   -5.733336034700e-02
    28    9.079623351736e-08
    29   -3.400299815759e-11
    30   -4.992802910962e-03
    31    4.959341217032e-03
    32   -5.103742022756e-10
    33    5.972512062728e-11
    34    1.045086787710e-02
    35   -4.661255824169e-14
    36   -8.645188459967e-16
    37    2.079089232192e-03
    38   -1.507581090156e-09
    39    5.718833499206e-05
    40    4.329262165033e-04
    41    2.288561036597e-03
    42    7.517190893658e-03
    43    1.870138571255e-02
    44    5.297125410322e-03
    45    4.766813095688e-02
    46   -3.535266781005e-02
    47   -7.601235713695e-03
    48    9.269890316090e-14
    49   -1.274000678693e-01
    50   -5.257018891271e-02
    51   -8.108595607589e-03
    52    2.719332148105e-13
    53   -6.795236364676e-02
    54   -1.822075788405e-02
    55   -1.474592789827e-02
    56   -3.955134209621e-13
    57   -5.406757657804e-02
    58    3.742124386305e-02
    59   -5.470746677362e-02
    60    3.401063648268e-11
    61   -2.496366417093e-03
    62   -2.111938892310e-03
    63    4.082912047923e-03
    64   -5.973506189069e-11
    65    5.225722565185e-03
    66    2.605847881388e-14
    67    4.810457205796e-14
    68    3.886474475977e-03
    69    3.441981556863e-03
    70   -4.069903666996e-02
    71   -5.886888023052e-02
    72    3.503745966122e-03
    73    1.959009558054e-02
    74    3.252833227482e-03
    75    7.582312182410e-03
    76    5.931883802998e-14
    77   -5.718829305735e-05
    78   -4.329258922089e-04
    79   -2.288559412308e-03
    80   -7.517185336126e-03
    81   -1.870137268418e-02
    82   -5.297121807418e-03
    83   -4.766811116013e-02
    84   -3.535265779312e-02
    85    7.601233349551e-03
    86   -1.633210546562e-13
    87    1.274000622323e-01
    88   -5.257017243478e-02
    89    8.108595488776e-03
    90   -3.843030682563e-13
    91    6.795234793977e-02
    92   -1.822074908933e-02
    93    1.474592904393e-02
    94    3.047552878126e-13
    95    5.406729220675e-02
    96    3.742133543136e-02
    97    5.470748933137e-02
    98   -3.401631020329e-11
    99    2.496356845432e-03
   100   -2.111940024009e-03
   101   -4.082909861963e-03
   102    5.971148853618e-11
   103   -5.225720835799e-03
   104    2.511087919137e-14
   105   -3.904495653632e-14
   106   -3.886473227868e-03
   107    3.441978866500e-03
   108    4.069903010845e-02
   109    5.886886526851e-02
   110   -3.503737714685e-03
   111   -1.959007325434e-02
   112    3.252831731029e-03
   113   -7.582309743134e-03
   114   -6.302426805879e-14
   115   -1.143669698517e-04
   116   -8.657792743659e-04
   117   -4.576732138806e-03
   118   -1.503311538950e-02
   119   -3.739963711941e-02
   120   -1.059318478696e-02
   121   -9.532748475005e-02
   122   -4.850722347875e-02
   123   -3.480449255205e-09
   124    9.770711024297e-14
   125    2.547750391602e-01
   126   -6.659824507975e-02
   127   -3.332878346744e-09
   128    2.776755324256e-13
   129    1.358763255159e-01
   130   -4.375435871891e-02
   131    3.139193475390e-10
   132   -3.852627121041e-13
   133    1.081350815643e-01
   134   -5.733336029687e-02
   135    9.120375892494e-08
   136    3.400845308693e-11
   137    4.992802899957e-03
   138    4.959341153133e-03
   139   -4.504228192172e-10
   140   -5.969027178032e-11
   141   -1.045086787717e-02
   142   -5.546324547442e-14
   143   -6.890342026465e-16
   144   -2.079089232471e-03
   145    1.507405596285e-09
   146    8.138370248487e-02
   147    1.177161696427e-01
   148   -7.011425024144e-03
   149   -3.918063832310e-02
   150    1.638383129288e-02
   151   -6.005387152787e-10
   152    5.983477768590e-14
   153   -5.718833482268e-05
   154   -4.329262151859e-04
   155   -2.288561030058e-03
   156   -7.517190871148e-03
   157   -1.870138565982e-02
   158   -5.297125391265e-03
   159   -4.766813089039e-02
   160   -3.535266781558e-02
   161   -7.601235724469e-03
   162   -1.495902210189e-13
   163    1.274000679007e-01
   164   -5.257018892094e-02
   165   -8.108595630240e-03
   166   -3.700585960587e-13
   167    6.795236366372e-02
   168   -1.822075792128e-02
   169   -1.474592791756e-02
   170    3.178162140709e-13
   171    5.406757632383e-02
   172    3.742124332027e-02
   173   -5.470746666719e-02
   174   -3.400761038129e-11
   175    2.496366390415e-03
   176   -2.111938839791e-03
   177    4.082911989014e-03
   178    5.968312824618e-11
   179   -5.225722566924e-03
   180    2.835921494462e-14
   181    3.973361557653e-14
   182   -3.886474477656e-03
   183   -3.441981552858e-03
   184    4.069903668550e-02
   185    5.886888023832e-02
   186   -3.503745988283e-03
   187   -1.959009571347e-02
   188    3.252833227018e-03
   189    7.582312181841e-03
   190   -6.538363417247e-14
   191    5.718829297006e-05
   192    4.329258915371e-04
   193    2.288559408951e-03
   194    7.517185324606e-03
   195    1.870137265709e-02
   196    5.297121797011e-03
   197    4.766811112681e-02
   198   -3.535265779891e-02
   199    7.601233359566e-03
   200    1.084613715799e-13
   201   -1.274000622498e-01
   202   -5.257017244420e-02
   203    8.108595510451e-03
   204    2.955427107151e-13
   205   -6.795234796313e-02
   206   -1.822074912914e-02
   207    1.474592906289e-02
   208   -3.624185369598e-13
   209   -5.406729166533e-02
   210    3.742133502496e-02
   211    5.470748921293e-02
   212    3.398416073152e-11
   213   -2.496356803167e-03
   214   -2.111940104732e-03
   215   -4.082909810315e-03
   216   -5.969579041065e-11
   217    5.225720837325e-03
   218    2.600293589213e-14
   219   -4.595044405790e-14
   220    3.886473229527e-03
   221   -3.441978863140e-03
   222   -4.069903012010e-02
   223   -5.886886526882e-02
   224    3.503737728134e-03
   225    1.959007326381e-02
   226    3.252831730508e-03
   227   -7.582309742176e-03
   228    5.881343437892e-14
Sym=X
Ene= 1.994652
Spin=Alpha
Occup=1
     1    6.496457153938e-09
     2    8.133005639715e-09
     3    7.779382411014e-10
     4    5.819277367402e-08
     5   -1.319211291675e-09
     6   -5.380295462377e-04
     7    1.824194200964e-14
     8   -1.410299568221e-11
     9   -1.067714498527e-10
    10   -5.634874545924e-10
    11   -1.844349858607e-09
    12   -4.537489898614e-09
    13   -1.916501039167e-09
    14   -1.167430666676e-08
    15    7.446320858360e-10
    16   -3.190657770294e-02
    17    2.575241127851e-13
    18    2.982032696435e-08
    19    1.264292398437e-09
    20   -4.892832758596e-02
    21    4.543450729596e-13
    22    3.606767193265e-08
    23   -5.160998565959e-09
    24    2.816141805192e-03
    25    3.570112408359e-13
    26   -9.238530211886e-09
    27   -2.458678914150e-08
    28   -2.278752538531e-03
    29   -2.260041315466e-13
    30    1.172894766951e-09
    31    4.579005199890e-09
    32   -3.941992536361e-03
    33    2.360853553703e-12
    34   -1.217719288858e-09
    35   -4.437286470722e-14
    36    4.207550023876e-15
    37   -7.087811279576e-10
    38    3.596384548072e-03
    39    8.396160761386e-05
    40    6.359051403439e-04
    41    3.359017061465e-03
    42    1.103958774731e-02
    43    2.736058691145e-02
    44    7.261331010912e-03
    45    7.023056616963e-02
    46   -4.661467278390e-02
    47   -4.883255536740e-02
    48    2.846119880455e-13
    49   -1.895355342295e-01
    50   -6.789044232166e-02
    51   -6.866133920171e-02
    52    4.878423289842e-13
    53   -1.346714978085e-01
    54   -2.979991367573e-02
    55   -5.443068326300e-02
    56    3.388447874812e-13
    57    2.949596480308e-01
    58   -7.141850212864e-02
    59   -1.214218898178e-01
    60    2.068317110353e-13
    61    2.857325424441e-02