[Molden Format]
[Atoms] (Angs)
  H      1    1      2.47503475      0.00000000     -0.00000000
  C      2    6      1.39359294      0.00000000     -0.00000000
  C      3    6      0.69679647      1.20688689      0.00000000
  H      4    1      1.23751738      2.14344297      0.00000000
  C      5    6     -0.69679647      1.20688689      0.00000000
  H      6    1     -1.23751738      2.14344297      0.00000000
  C      7    6     -1.39359294     -0.00000000      0.00000000
  H      8    1     -2.47503475     -0.00000000      0.00000000
  C      9    6     -0.69679647     -1.20688689     -0.00000000
  H     10    1     -1.23751738     -2.14344297     -0.00000000
  C     11    6      0.69679647     -1.20688689     -0.00000000
  H     12    1      1.23751738     -2.14344297     -0.00000000
[GTO]
1    0
S    3    1.000000
   3.38650000E+01    2.54938000E-02 
   5.09479000E+00    1.90373000E-01 
   1.15879000E+00    8.52161000E-01 
S    1    1.000000
   3.25840000E-01    1.00000000E+00 
S    1    1.000000
   1.02741000E-01    1.00000000E+00 
S    1    1.000000
   3.60000000E-02    1.00000000E+00 
P    1    1.000000
   7.50000000E-01    1.00000000E+00 

2    0
S    1    1.000000
   4.56324000E+03    1.96665000E-03 
S    1    1.000000
   6.82024000E+02    1.52306000E-02 
S    1    1.000000
   1.54973000E+02    7.61269000E-02 
S    1    1.000000
   4.44553000E+01    2.60801000E-01 
S    1    1.000000
   1.30290000E+01    6.16462000E-01 
S    1    1.000000
   1.82773000E+00    2.21006000E-01 
SP   3    1.000000
   2.09642000E+01    1.14660000E-01   4.02487000E-02 
   4.80331000E+00    9.19999000E-01   2.37594000E-01 
   1.45933000E+00   -3.03068000E-03   8.15854000E-01 
SP   1    1.000000
   4.83456000E-01    1.00000000E+00   1.00000000E+00 
SP   1    1.000000
   1.45585000E-01    1.00000000E+00   1.00000000E+00 
SP   1    1.000000
   4.38000000E-02    1.00000000E+00   1.00000000E+00 
SP   1    1.000000
   1.31927711E-02    1.00000000E+00   1.00000000E+00 
D    1    1.000000
   6.26000000E-01    1.00000000E+00 

3    0
S    1    1.000000
   4.56324000E+03    1.96665000E-03 
S    1    1.000000
   6.82024000E+02    1.52306000E-02 
S    1    1.000000
   1.54973000E+02    7.61269000E-02 
S    1    1.000000
   4.44553000E+01    2.60801000E-01 
S    1    1.000000
   1.30290000E+01    6.16462000E-01 
S    1    1.000000
   1.82773000E+00    2.21006000E-01 
SP   3    1.000000
   2.09642000E+01    1.14660000E-01   4.02487000E-02 
   4.80331000E+00    9.19999000E-01   2.37594000E-01 
   1.45933000E+00   -3.03068000E-03   8.15854000E-01 
SP   1    1.000000
   4.83456000E-01    1.00000000E+00   1.00000000E+00 
SP   1    1.000000
   1.45585000E-01    1.00000000E+00   1.00000000E+00 
SP   1    1.000000
   4.38000000E-02    1.00000000E+00   1.00000000E+00 
SP   1    1.000000
   1.31927711E-02    1.00000000E+00   1.00000000E+00 
D    1    1.000000
   6.26000000E-01    1.00000000E+00 

4    0
S    3    1.000000
   3.38650000E+01    2.54938000E-02 
   5.09479000E+00    1.90373000E-01 
   1.15879000E+00    8.52161000E-01 
S    1    1.000000
   3.25840000E-01    1.00000000E+00 
S    1    1.000000
   1.02741000E-01    1.00000000E+00 
S    1    1.000000
   3.60000000E-02    1.00000000E+00 
P    1    1.000000
   7.50000000E-01    1.00000000E+00 

5    0
S    1    1.000000
   4.56324000E+03    1.96665000E-03 
S    1    1.000000
   6.82024000E+02    1.52306000E-02 
S    1    1.000000
   1.54973000E+02    7.61269000E-02 
S    1    1.000000
   4.44553000E+01    2.60801000E-01 
S    1    1.000000
   1.30290000E+01    6.16462000E-01 
S    1    1.000000
   1.82773000E+00    2.21006000E-01 
SP   3    1.000000
   2.09642000E+01    1.14660000E-01   4.02487000E-02 
   4.80331000E+00    9.19999000E-01   2.37594000E-01 
   1.45933000E+00   -3.03068000E-03   8.15854000E-01 
SP   1    1.000000
   4.83456000E-01    1.00000000E+00   1.00000000E+00 
SP   1    1.000000
   1.45585000E-01    1.00000000E+00   1.00000000E+00 
SP   1    1.000000
   4.38000000E-02    1.00000000E+00   1.00000000E+00 
SP   1    1.000000
   1.31927711E-02    1.00000000E+00   1.00000000E+00 
D    1    1.000000
   6.26000000E-01    1.00000000E+00 

6    0
S    3    1.000000
   3.38650000E+01    2.54938000E-02 
   5.09479000E+00    1.90373000E-01 
   1.15879000E+00    8.52161000E-01 
S    1    1.000000
   3.25840000E-01    1.00000000E+00 
S    1    1.000000
   1.02741000E-01    1.00000000E+00 
S    1    1.000000
   3.60000000E-02    1.00000000E+00 
P    1    1.000000
   7.50000000E-01    1.00000000E+00 

7    0
S    1    1.000000
   4.56324000E+03    1.96665000E-03 
S    1    1.000000
   6.82024000E+02    1.52306000E-02 
S    1    1.000000
   1.54973000E+02    7.61269000E-02 
S    1    1.000000
   4.44553000E+01    2.60801000E-01 
S    1    1.000000
   1.30290000E+01    6.16462000E-01 
S    1    1.000000
   1.82773000E+00    2.21006000E-01 
SP   3    1.000000
   2.09642000E+01    1.14660000E-01   4.02487000E-02 
   4.80331000E+00    9.19999000E-01   2.37594000E-01 
   1.45933000E+00   -3.03068000E-03   8.15854000E-01 
SP   1    1.000000
   4.83456000E-01    1.00000000E+00   1.00000000E+00 
SP   1    1.000000
   1.45585000E-01    1.00000000E+00   1.00000000E+00 
SP   1    1.000000
   4.38000000E-02    1.00000000E+00   1.00000000E+00 
SP   1    1.000000
   1.31927711E-02    1.00000000E+00   1.00000000E+00 
D    1    1.000000
   6.26000000E-01    1.00000000E+00 

8    0
S    3    1.000000
   3.38650000E+01    2.54938000E-02 
   5.09479000E+00    1.90373000E-01 
   1.15879000E+00    8.52161000E-01 
S    1    1.000000
   3.25840000E-01    1.00000000E+00 
S    1    1.000000
   1.02741000E-01    1.00000000E+00 
S    1    1.000000
   3.60000000E-02    1.00000000E+00 
P    1    1.000000
   7.50000000E-01    1.00000000E+00 

9    0
S    1    1.000000
   4.56324000E+03    1.96665000E-03 
S    1    1.000000
   6.82024000E+02    1.52306000E-02 
S    1    1.000000
   1.54973000E+02    7.61269000E-02 
S    1    1.000000
   4.44553000E+01    2.60801000E-01 
S    1    1.000000
   1.30290000E+01    6.16462000E-01 
S    1    1.000000
   1.82773000E+00    2.21006000E-01 
SP   3    1.000000
   2.09642000E+01    1.14660000E-01   4.02487000E-02 
   4.80331000E+00    9.19999000E-01   2.37594000E-01 
   1.45933000E+00   -3.03068000E-03   8.15854000E-01 
SP   1    1.000000
   4.83456000E-01    1.00000000E+00   1.00000000E+00 
SP   1    1.000000
   1.45585000E-01    1.00000000E+00   1.00000000E+00 
SP   1    1.000000
   4.38000000E-02    1.00000000E+00   1.00000000E+00 
SP   1    1.000000
   1.31927711E-02    1.00000000E+00   1.00000000E+00 
D    1    1.000000
   6.26000000E-01    1.00000000E+00 

10    0
S    3    1.000000
   3.38650000E+01    2.54938000E-02 
   5.09479000E+00    1.90373000E-01 
   1.15879000E+00    8.52161000E-01 
S    1    1.000000
   3.25840000E-01    1.00000000E+00 
S    1    1.000000
   1.02741000E-01    1.00000000E+00 
S    1    1.000000
   3.60000000E-02    1.00000000E+00 
P    1    1.000000
   7.50000000E-01    1.00000000E+00 

11    0
S    1    1.000000
   4.56324000E+03    1.96665000E-03 
S    1    1.000000
   6.82024000E+02    1.52306000E-02 
S    1    1.000000
   1.54973000E+02    7.61269000E-02 
S    1    1.000000
   4.44553000E+01    2.60801000E-01 
S    1    1.000000
   1.30290000E+01    6.16462000E-01 
S    1    1.000000
   1.82773000E+00    2.21006000E-01 
SP   3    1.000000
   2.09642000E+01    1.14660000E-01   4.02487000E-02 
   4.80331000E+00    9.19999000E-01   2.37594000E-01 
   1.45933000E+00   -3.03068000E-03   8.15854000E-01 
SP   1    1.000000
   4.83456000E-01    1.00000000E+00   1.00000000E+00 
SP   1    1.000000
   1.45585000E-01    1.00000000E+00   1.00000000E+00 
SP   1    1.000000
   4.38000000E-02    1.00000000E+00   1.00000000E+00 
SP   1    1.000000
   1.31927711E-02    1.00000000E+00   1.00000000E+00 
D    1    1.000000
   6.26000000E-01    1.00000000E+00 

12    0
S    3    1.000000
   3.38650000E+01    2.54938000E-02 
   5.09479000E+00    1.90373000E-01 
   1.15879000E+00    8.52161000E-01 
S    1    1.000000
   3.25840000E-01    1.00000000E+00 
S    1    1.000000
   1.02741000E-01    1.00000000E+00 
S    1    1.000000
   3.60000000E-02    1.00000000E+00 
P    1    1.000000
   7.50000000E-01    1.00000000E+00 

[MO]
Sym=X
Ene= 1.996695
Spin=Alpha
Occup=1
     1   -3.300692623344e-03
     2   -4.894838022831e-04
     3    6.786595892314e-03
     4   -2.688869693232e-02
     5    2.578235914044e-03
     6    3.316891721027e-10
     7   -1.306025850531e-15
     8    5.485841535554e-05
     9    4.153916948451e-04
    10    2.191827732171e-03
    11    7.223157259397e-03
    12    1.824292900578e-02
    13    5.677139851510e-03
    14    4.307845182663e-02
    15    2.152436374832e-02
    16    5.619205589828e-09
    17   -9.281479668253e-15
    18   -1.142772236320e-01
    19    3.380740175450e-02
    20    8.742006883134e-09
    21   -2.139747361607e-14
    22   -2.860745718921e-02
    23    7.850150108172e-03
    24    4.975068728442e-10
    25   -7.446754189569e-15
    26   -1.341020032087e-01
    27    5.660452734096e-02
    28   -1.442479044636e-09
    29    4.800220339807e-15
    30   -1.239379781799e-02
    31    1.726314320693e-03
    32   -6.580905752607e-09
    33   -3.674076664910e-13
    34    6.114857076921e-03
    35    2.660644712443e-15
    36   -2.183351251345e-15
    37    7.007707375879e-03
    38   -6.765867216889e-10
    39    1.078624137375e-04
    40    8.158904591956e-04
    41    4.314242442518e-03
    42    1.414536531404e-02
    43    3.541366027393e-02
    44    1.307592157331e-02
    45    8.791413945026e-02
    46    8.065310936400e-03
    47   -2.010359887538e-02
    48   -1.552004995412e-14
    49   -2.385197865853e-01
    50    1.457476833007e-02
    51   -2.603940021976e-02
    52   -2.842714664804e-14
    53   -1.218080952995e-01
    54   -7.298093339827e-03
    55   -2.053620967268e-02
    56   -3.057283505840e-14
    57    6.493579706886e-02
    58   -1.808119191540e-02
    59   -3.242105711680e-02
    60   -1.744218465267e-14
    61    6.946961922561e-03
    62    2.517916178831e-03
    63   -1.699926451140e-04
    64    3.589327721194e-13
    65    1.023870863277e-02
    66    2.008525058011e-15
    67    9.961965207348e-16
    68   -2.940581643239e-03
    69    2.446716504395e-04
    70   -5.450855915955e-02
    71   -7.644691391972e-02
    72    5.765618999351e-03
    73    1.319849927895e-02
    74    6.186288460441e-03
    75    9.684010523694e-03
    76   -2.189592909635e-15
    77    1.078624503644e-04
    78    8.158907414553e-04
    79    4.314243866353e-03
    80    1.414537014613e-02
    81    3.541367171054e-02
    82    1.307592603899e-02
    83    8.791415800155e-02
    84   -8.065305834782e-03
    85   -2.010359625079e-02
    86   -1.926346102697e-14
    87   -2.385198003887e-01
    88   -1.457476051427e-02
    89   -2.603939636241e-02
    90   -4.909527051414e-14
    91   -1.218081258822e-01
    92    7.298088823236e-03
    93   -2.053620392500e-02
    94   -2.156520968687e-14
    95    6.493578993012e-02
    96    1.808118593096e-02
    97   -3.242104053478e-02
    98    1.852169902765e-14
    99    6.946960188995e-03
   100   -2.517919535120e-03
   101   -1.699998346997e-04
   102   -4.209415052183e-13
   103    1.023870946148e-02
   104   -1.630375456511e-15
   105    3.497651901777e-15
   106   -2.940581587962e-03
   107   -2.446731163801e-04
   108   -5.450856222277e-02
   109   -7.644691699237e-02
   110    5.765615605112e-03
   111    1.319847036801e-02
   112   -6.186288522225e-03
   113    9.684011359947e-03
   114   -1.281196164268e-15
   115    5.485841536040e-05
   116    4.153916948828e-04
   117    2.191827732352e-03
   118    7.223157260037e-03
   119    1.824292900715e-02
   120    5.677139851863e-03
   121    4.307845182764e-02
   122   -2.152436374868e-02
   123   -5.621179816970e-09
   124   -2.214864028372e-14
   125   -1.142772236251e-01
   126   -3.380740175547e-02
   127   -8.743921406537e-09
   128   -3.886291728328e-14
   129   -2.860745718978e-02
   130   -7.850150109896e-03
   131   -4.668853837537e-10
   132   -3.796397204788e-14
   133   -1.341020044984e-01
   134   -5.660452740285e-02
   135   -2.544325259116e-11
   136   -3.712679658287e-14
   137   -1.239379785410e-02
   138   -1.726314319003e-03
   139    6.561373428658e-09
   140    4.746083777585e-13
   141    6.114857076546e-03
   142   -3.165227119747e-15
   143    1.022196048662e-15
   144    7.007707376046e-03
   145   -6.743426402847e-10
   146   -3.300692621628e-03
   147   -4.894838013300e-04
   148    6.786595893972e-03
   149   -2.688869700531e-02
   150   -2.578235913842e-03
   151   -3.310937628197e-10
   152   -4.123221571290e-15
   153    1.078624137111e-04
   154    8.158904589896e-04
   155    4.314242441541e-03
   156    1.414536531059e-02
   157    3.541366026672e-02
   158    1.307592157106e-02
   159    8.791413944578e-02
   160   -8.065310946631e-03
   161    2.010359888521e-02
   162   -2.093563803562e-14
   163   -2.385197866308e-01
   164   -1.457476834954e-02
   165    2.603940023245e-02
   166   -2.967599771014e-14
   167   -1.218080952960e-01
   168    7.298093327438e-03
   169    2.053620969595e-02
   170   -3.041164683478e-14
   171    6.493579410151e-02
   172    1.808119200938e-02
   173    3.242105705306e-02
   174    4.110102069654e-14
   175    6.946961829945e-03
   176   -2.517916186683e-03
   177    1.699926429911e-04
   178   -4.916218056572e-13
   179    1.023870863494e-02
   180   -2.480528931082e-15
   181   -5.410363386854e-15
   182   -2.940581644512e-03
   183    2.446716479274e-04
   184   -5.450855916882e-02
   185   -7.644691393160e-02
   186    5.765619033223e-03
   187    1.319849925477e-02
   188   -6.186288463661e-03
   189   -9.684010526111e-03
   190   -8.748949404155e-16
   191    1.078624502974e-04
   192    8.158907409300e-04
   193    4.314243863784e-03
   194    1.414537013723e-02
   195    3.541367169052e-02
   196    1.307592603200e-02
   197    8.791415798088e-02
   198    8.065305842714e-03
   199    2.010359626019e-02
   200   -8.555508280128e-15
   201   -2.385198004402e-01
   202    1.457476052865e-02
   203    2.603939637377e-02
   204   -2.876371482806e-14
   205   -1.218081258924e-01
   206   -7.298088799441e-03
   207    2.053620393963e-02
   208   -1.787384975250e-14
   209    6.493578827237e-02
   210   -1.808118710347e-02
   211    3.242103985418e-02
   212   -2.921694674407e-14
   213    6.946960131847e-03
   214    2.517919518683e-03
   215    1.699998144691e-04
   216    4.335527291361e-13
   217    1.023870946442e-02
   218   -1.113817724156e-15
   219   -2.723711149634e-15
   220   -2.940581589142e-03
   221   -2.446731139664e-04
   222   -5.450856223405e-02
   223   -7.644691700618e-02
   224    5.765615614360e-03
   225    1.319847036662e-02
   226    6.186288524933e-03
   227   -9.684011363417e-03
   228   -9.471751381146e-17
Sym=X
Ene= 1.996554
Spin=Alpha
Occup=1
     1   -4.581022480090e-11
     2    1.362213040386e-09
     3   -8.061042763769e-10
     4   -4.054079020399e-09
     5   -3.816558623955e-10
     6    9.182743593668e-04
     7   -6.252769842579e-14
     8   -1.496431078807e-12
     9   -1.110682922983e-11
    10   -6.051927233925e-11
    11   -1.921224551619e-10
    12   -5.424289490507e-10
    13   -6.126929722162e-10
    14   -1.152390522232e-09
    15   -1.448783089091e-09
    16    2.702160164512e-02
    17   -1.250993076799e-13
    18    5.703801039467e-09
    19   -2.612869102209e-09
    20    4.125431909767e-02
    21   -3.294339484733e-13
    22   -6.606402569267e-09
    23   -1.779046641852e-09
    24    7.040316896260e-03
    25    3.723693197322e-13
    26   -1.192514528071e-07
    27    2.638560624364e-09
    28   -6.902326726612e-02
    29   -3.401672826016e-11
    30   -4.002608267470e-09
    31    2.597679671299e-09
    32    4.773652415760e-03
    33    6.020360768719e-11
    34    1.605484903499e-09
    35   -5.163249596074e-14
    36    1.786589091599e-15
    37    9.432399733046e-10
    38   -5.600089327457e-03
    39   -9.852707243663e-05
    40   -7.455344631290e-04
    41   -3.942605038062e-03
    42   -1.292891441737e-02
    43   -3.217353238068e-02
    44   -1.065500245828e-02
    45   -8.192235484352e-02
    46    2.160146249007e-03
    47    4.505632862472e-02
    48    1.302716010094e-13
    49    2.195477417925e-01
    50    4.463247019399e-04
    51    6.439902792892e-02
    52    3.441527503399e-13
    53    1.184224898212e-01
    54    1.134342733956e-02
    55    3.651825084033e-02
    56   -3.565703714244e-13
    57    9.334088149933e-02
    58    5.566241560004e-02
    59    2.628348629367e-02
    60    3.397125748215e-11
    61    4.465458637753e-03
    62   -4.668283352979e-03
    63   -2.561552749642e-03
    64   -6.013835527396e-11
    65   -9.086712033883e-03
    66    2.560779308036e-14
    67    4.704679297154e-14
    68    4.059359836423e-03
    69    3.040771657504e-04
    70    7.036531051022e-02
    71    1.024537367653e-01
    72   -5.772097818628e-03
    73   -3.440595282572e-02
    74   -7.722895267804e-03
    75   -1.182321041558e-02
    76    6.477700743529e-14
    77   -9.852713693868e-05
    78   -7.455349621978e-04
    79   -3.942607530840e-03
    80   -1.292892296085e-02
    81   -3.217355254333e-02
    82   -1.065500980130e-02
    83   -8.192238262308e-02
    84   -2.160147186884e-03
    85    4.505633279510e-02
    86   -1.263673963400e-13
    87    2.195477427137e-01
    88   -4.463210286358e-04
    89    6.439903305666e-02
    90   -3.283159817963e-13
    91    1.184225036357e-01
    92   -1.134341785809e-02
    93    3.651825545078e-02
    94    3.545496845281e-13
    95    9.334101541843e-02
    96   -5.566233186267e-02
    97    2.628358073239e-02
    98   -3.393129022991e-11
    99    4.465463026428e-03
   100    4.668281971111e-03
   101   -2.561550476220e-03
   102    6.007521227800e-11
   103   -9.086711582313e-03
   104    2.675986441497e-14
   105   -4.420343914885e-14
   106    4.059363273507e-03
   107   -3.040780487706e-04
   108    7.036531534329e-02
   109    1.024537537113e-01
   110   -5.772109823007e-03
   111   -3.440599043041e-02
   112    7.722896169630e-03
   113   -1.182321383184e-02
   114   -6.293376343065e-14
   115    1.949010254457e-12
   116    1.461870337343e-11
   117    7.797151267420e-11
   118    2.521833175422e-10
   119    6.830225193418e-10
   120    6.614777905992e-10
   121    1.331453633059e-09
   122   -1.460583138807e-09
   123    2.702160164528e-02
   124    1.248211618982e-13
   125   -5.625353568355e-09
   126   -2.632371388720e-09
   127    4.125431909848e-02
   128    3.255926455431e-13
   129    6.599439836652e-09
   130   -1.810295042871e-09
   131    7.040316885207e-03
   132   -3.541607912165e-13
   133    1.195332298523e-07
   134    2.586436775033e-09
   135   -6.902326661637e-02
   136    3.393906906528e-11
   137    4.016469913990e-09
   138    2.705540281611e-09
   139    4.773652361311e-03
   140   -6.010226868037e-11
   141   -1.608392335901e-09
   142   -5.141339619930e-14
   143   -2.077540269491e-16
   144   -9.389913679061e-10
   145    5.600089327390e-03
   146    7.186962044020e-11
   147   -1.338896481134e-09
   148    8.325023629832e-10
   149    4.006844687317e-09
   150   -3.804914416294e-10
   151    9.182743595574e-04
   152    6.233007915971e-14
   153    9.852707268866e-05
   154    7.455344650855e-04
   155    3.942605047783e-03
   156    1.292891445084e-02
   157    3.217353245883e-02
   158    1.065500248452e-02
   159    8.192235494324e-02
   160    2.160146247163e-03
   161    4.505632862806e-02
   162   -1.293597291086e-13
   163   -2.195477417470e-01
   164    4.463246997381e-04
   165    6.439902794099e-02
   166   -3.283184510346e-13
   167   -1.184224897733e-01
   168    1.134342733754e-02
   169    3.651825083957e-02
   170    3.593495707403e-13
   171   -9.334088199011e-02
   172    5.566241502616e-02
   173    2.628348646620e-02
   174   -3.401691498152e-11
   175   -4.465458680667e-03
   176   -4.668283477513e-03
   177   -2.561552686074e-03
   178    6.017916478455e-11
   179    9.086712033624e-03
   180    2.468317184207e-14
   181    4.048735416335e-14
   182   -4.059359836171e-03
   183   -3.040771664467e-04
   184   -7.036531050474e-02
   185   -1.024537367527e-01
   186    5.772097781009e-03
   187    3.440595275620e-02
   188   -7.722895266102e-03
   189   -1.182321041289e-02
   190   -6.035268538781e-14
   191    9.852713716348e-05
   192    7.455349639351e-04
   193    3.942607539474e-03
   194    1.292892299059e-02
   195    3.217355261273e-02
   196    1.065500982426e-02
   197    8.192238271252e-02
   198   -2.160147187087e-03
   199    4.505633280162e-02
   200    1.207069032454e-13
   201   -2.195477426778e-01
   202   -4.463210309679e-04
   203    6.439903307324e-02
   204    3.245807321420e-13
   205   -1.184225036027e-01
   206   -1.134341784720e-02
   207    3.651825547489e-02
   208   -3.789300165845e-13
   209   -9.334101519906e-02
   210   -5.566233263024e-02
   211    2.628358050360e-02
   212    3.405591105546e-11
   213   -4.465462995189e-03
   214    4.668282066503e-03
   215   -2.561550538258e-03
   216   -6.024917051708e-11
   217    9.086711582131e-03
   218    2.451627450656e-14
   219   -4.428256712997e-14
   220   -4.059363272898e-03
   221    3.040780502584e-04
   222   -7.036531534105e-02
   223   -1.024537537041e-01
   224    5.772109834435e-03
   225    3.440599053434e-02
   226    7.722896168106e-03
   227   -1.182321382968e-02
   228    6.161165665191e-14
Sym=X
Ene= 1.995764
Spin=Alpha
Occup=1
     1   -6.328520502832e-09
     2   -8.041740002307e-09
     3   -5.907086974739e-10
     4   -4.731904860437e-08
     5    1.333415653682e-09
     6    4.475914023905e-04
     7   -2.525709057219e-14
     8    1.450248894155e-11
     9    1.098903569158e-10
    10    5.786648782264e-10
    11    1.897563594396e-09
    12    4.664897796469e-09
    13    2.007753423197e-09
    14    1.174678582696e-08
    15   -5.968067684123e-10
    16    3.127925907231e-02
    17   -2.516167341662e-13
    18   -2.965460594511e-08
    19   -1.002970235876e-09
    20    4.702994766196e-02
    21   -4.612070638372e-13
    22   -3.322014876296e-08
    23    4.638989416191e-09
    24   -3.980206118790e-03
    25   -3.459212568593e-13
    26    8.700679206067e-09
    27    1.949180016153e-08
    28    3.855270010551e-03
    29    1.900601486080e-13
    30   -8.164101625043e-10
    31   -3.350782228706e-09
    32    4.139355117824e-03
    33   -1.966570848223e-12
    34    1.142881112094e-09
    35    3.571683663176e-14
    36   -5.513754721675e-14
    37    7.056249491053e-10
    38   -3.393029322447e-03
    39   -7.381148514308e-05
    40   -5.572661326530e-04
    41   -2.964778823161e-03
    42   -9.674152403454e-03
    43   -2.410931333894e-02
    44   -7.453191182628e-03
    45   -6.524500688263e-02
    46    4.542398729069e-02
    47    4.861532998216e-02
    48   -2.760628022326e-13
    49    1.862214474474e-01
    50    6.768264752692e-02
    51    6.956171845583e-02
    52   -4.953787940029e-13
    53    1.336793258840e-01
    54    3.061939845648e-02
    55    5.546533260034e-02
    56   -3.323890120222e-13
    57   -3.024519766635e-01
    58    7.182646574563e-02
    59    1.233975511619e-01
    60   -1.899885915191e-13
    61   -2.918280238660e-02
    62    3.891584002925e-03
    63    2.655783542679e-03
    64    1.941984998950e-12
    65   -6.388781118657e-03
    66   -3.263220593799e-15
    67    4.758519997513e-14
    68   -7.274057724909e-03
    69    9.496578981848e-03
    70    8.858423104857e-02
    71    1.319889446826e-01
    72    7.583717698848e-03
    73   -6.039426957551e-02
    74   -6.930158345623e-03
    75   -1.250368471184e-02
    76   -2.575961489655e-14
    77    7.381129808874e-05
    78    5.572646863621e-04
    79    2.964771584946e-03
    80    9.674127628857e-03
    81    2.410925478676e-02
    82    7.453170012128e-03
    83    6.524492346614e-02
    84    4.542400373569e-02
    85   -4.861531490640e-02
    86   -2.977264298329e-13
    87   -1.862214232671e-01
    88    6.768267308104e-02
    89   -6.956169466825e-02
    90   -4.985184551060e-13
    91   -1.336792983103e-01
    92    3.061940656782e-02
    93   -5.546533279305e-02
    94   -4.021416398008e-13
    95    3.024519757563e-01
    96    7.182647429542e-02
    97   -1.233975648145e-01
    98    1.421175430713e-13
    99    2.918280380463e-02
   100    3.891560391491e-03
   101   -2.655792544773e-03
   102   -1.918026041494e-12
   103    6.388780291531e-03
   104   -9.815639924870e-14
   105   -2.607285574183e-15
   106    7.274061040834e-03
   107    9.496577496513e-03
   108   -8.858422359074e-02
   109   -1.319889334930e-01
   110   -7.583715827911e-03
   111    6.039430899524e-02
   112   -6.930156473676e-03
   113    1.250368387300e-02
   114   -2.007062412667e-14
   115    1.322582395183e-11
   116    1.000102760740e-10
   117    5.293948686682e-10
   118    1.728361593000e-09
   119    4.265581764556e-09
   120    1.862258419126e-09
   121    1.121575226707e-08
   122    6.113562262688e-10
   123   -3.127925906913e-02
   124   -2.934229059296e-13
   125   -2.968041257896e-08
   126    1.024340040689e-09
   127   -4.702994765743e-02
   128   -5.017034132718e-13
   129   -3.326927865495e-08
   130   -4.634494354281e-09
   131    3.980206131711e-03
   132   -3.604893865116e-13
   133    7.401742904325e-09
   134   -1.948851149777e-08
   135   -3.855269101819e-03
   136   -1.454203584061e-13
   137   -8.664621587640e-10
   138    3.340097201461e-09
   139   -4.139355101250e-03
   140    1.887364336104e-12
   141    1.141738172329e-09
   142   -5.573112766072e-14
   143   -5.501648758090e-14
   144    7.043856340951e-10
   145   -3.393029322662e-03
   146   -6.345597635243e-09
   147   -8.067510522474e-09
   148   -5.903414259578e-10
   149   -4.732065541891e-08
   150   -1.338788907793e-09
   151   -4.475914019140e-04
   152   -1.373445275434e-14
   153   -7.381148444780e-05
   154   -5.572661272685e-04
   155   -2.964778796314e-03
   156   -9.674152311257e-03
   157   -2.410931312114e-02
   158   -7.453191101874e-03
   159   -6.524500659213e-02
   160   -4.542398728959e-02
   161   -4.861532998623e-02
   162   -2.794321411589e-13
   163    1.862214474523e-01
   164   -6.768264751614e-02
   165   -6.956171845787e-02
   166   -4.580572706863e-13
   167    1.336793258829e-01
   168   -3.061939847932e-02
   169   -5.546533258570e-02
   170   -3.638872118035e-13
   171   -3.024519759136e-01
   172   -7.182646666268e-02
   173   -1.233975505783e-01
   174    1.623084344948e-13
   175   -2.918280236826e-02
   176   -3.891584015114e-03
   177   -2.655783534667e-03
   178   -1.931378105761e-12
   179   -6.388781116623e-03
   180   -4.911549886608e-14
   181   -2.973102550159e-14
   182   -7.274057722842e-03
   183    9.496578982312e-03
   184    8.858423104973e-02
   185    1.319889446953e-01
   186    7.583717694315e-03
   187   -6.039426952099e-02
   188    6.930158348725e-03
   189    1.250368471786e-02
   190   -1.434571944160e-14
   191    7.381129747730e-05
   192    5.572646816274e-04
   193    2.964771561327e-03
   194    9.674127547763e-03
   195    2.410925459511e-02
   196    7.453169941018e-03
   197    6.524492320911e-02
   198   -4.542400373738e-02
   199    4.861531490470e-02
   200   -2.557556106488e-13
   201   -1.862214232633e-01
   202   -6.768267307588e-02
   203    6.956169466191e-02
   204   -4.287576118028e-13
   205   -1.336792982605e-01
   206   -3.061940657623e-02
   207    5.546533276694e-02
   208   -3.151333551007e-13
   209    3.024519779007e-01
   210   -7.182647436256e-02
   211    1.233975645759e-01
   212   -1.762821442214e-13
   213    2.918280385634e-02
   214   -3.891560383707e-03
   215    2.655792537033e-03
   216    1.930164946054e-12
   217    6.388780289646e-03
   218   -5.351499711184e-14
   219   -7.592505306088e-14
   220    7.274061039551e-03
   221    9.496577496499e-03
   222   -8.858422358881e-02
   223   -1.319889334980e-01
   224   -7.583715913005e-03
   225    6.039430883811e-02
   226    6.930156476560e-03
   227   -1.250368387840e-02
   228   -1.957953456086e-14
Sym=X
Ene= 1.995742
Spin=Alpha
Occup=1
     1    3.111130907044e-02
     2    4.298310213786e-02
     3   -1.645966112808e-02
     4   -3.459875761939e-02
     5   -8.832443000232e-03
     6   -2.325503519711e-11
     7    5.550136362415e-14
     8   -7.284186215746e-05
     9   -5.525043092082e-04
    10   -2.908779329938e-03
    11   -9.609067124302e-03
    12   -2.394094916334e-02
    13   -5.871923587823e-03
    14   -5.835448829413e-02
    15    1.180586142304e-02
    16    1.253900060065e-09
    17    1.305212053963e-13
    18    1.499356050607e-01
    19    1.352311166766e-02
    20   -4.962771861079e-10
    21    3.106199845138e-13
    22    3.751159741989e-02
    23    1.893984155809e-02
    24    8.356233705046e-10
    25   -1.999017744507e-13
    26    9.400246389249e-02
    27    4.528194412758e-02
    28   -8.185931340785e-08
    29    2.865533147166e-11
    30    4.541364977789e-03
    31   -2.612474717834e-03
    32    1.850696336978e-10
    33   -5.090272780324e-11
    34   -7.529622605783e-03
    35    3.783019047007e-14
    36    7.909188336437e-16
    37   -1.270961723229e-02
    38    2.251898520765e-09
    39   -7.869336744323e-05
    40   -5.954443176001e-04
    41   -3.150483662610e-03
    42   -1.032628115824e-02
    43   -2.560631840880e-02
    44   -7.682448977729e-03
    45   -6.645210062518e-02
    46    4.552053801907e-02
    47    3.396171656767e-02
    48   -6.763093701680e-14
    49    1.792681254703e-01
    50    6.812261656759e-02
    51    4.728244520952e-02
    52   -2.017985472466e-13
    53    1.351975266010e-01
    54    2.658856568986e-02
    55    2.988089566466e-02
    56    2.866090423113e-13
    57    4.595521813829e-02
    58   -3.079223977637e-02
    59    5.034640359257e-02
    60   -2.865967057816e-11
    61    1.948801544877e-03