[Molden Format]
[Atoms] (Angs)
  H      1    1      2.47503475      0.00000000     -0.00000000
  C      2    6      1.39359294      0.00000000     -0.00000000
  C      3    6      0.69679647      1.20688689      0.00000000
  H      4    1      1.23751738      2.14344297      0.00000000
  C      5    6     -0.69679647      1.20688689      0.00000000
  H      6    1     -1.23751738      2.14344297      0.00000000
  C      7    6     -1.39359294     -0.00000000      0.00000000
  H      8    1     -2.47503475     -0.00000000      0.00000000
  C      9    6     -0.69679647     -1.20688689     -0.00000000
  H     10    1     -1.23751738     -2.14344297     -0.00000000
  C     11    6      0.69679647     -1.20688689     -0.00000000
  H     12    1      1.23751738     -2.14344297     -0.00000000
[GTO]
1    0
S    3    1.000000
   3.38650000E+01    2.54938000E-02 
   5.09479000E+00    1.90373000E-01 
   1.15879000E+00    8.52161000E-01 
S    1    1.000000
   3.25840000E-01    1.00000000E+00 
S    1    1.000000
   1.02741000E-01    1.00000000E+00 
S    1    1.000000
   3.60000000E-02    1.00000000E+00 
P    1    1.000000
   7.50000000E-01    1.00000000E+00 

2    0
S    1    1.000000
   4.56324000E+03    1.96665000E-03 
S    1    1.000000
   6.82024000E+02    1.52306000E-02 
S    1    1.000000
   1.54973000E+02    7.61269000E-02 
S    1    1.000000
   4.44553000E+01    2.60801000E-01 
S    1    1.000000
   1.30290000E+01    6.16462000E-01 
S    1    1.000000
   1.82773000E+00    2.21006000E-01 
SP   3    1.000000
   2.09642000E+01    1.14660000E-01   4.02487000E-02 
   4.80331000E+00    9.19999000E-01   2.37594000E-01 
   1.45933000E+00   -3.03068000E-03   8.15854000E-01 
SP   1    1.000000
   4.83456000E-01    1.00000000E+00   1.00000000E+00 
SP   1    1.000000
   1.45585000E-01    1.00000000E+00   1.00000000E+00 
SP   1    1.000000
   4.38000000E-02    1.00000000E+00   1.00000000E+00 
SP   1    1.000000
   1.31927711E-02    1.00000000E+00   1.00000000E+00 
D    1    1.000000
   6.26000000E-01    1.00000000E+00 

3    0
S    1    1.000000
   4.56324000E+03    1.96665000E-03 
S    1    1.000000
   6.82024000E+02    1.52306000E-02 
S    1    1.000000
   1.54973000E+02    7.61269000E-02 
S    1    1.000000
   4.44553000E+01    2.60801000E-01 
S    1    1.000000
   1.30290000E+01    6.16462000E-01 
S    1    1.000000
   1.82773000E+00    2.21006000E-01 
SP   3    1.000000
   2.09642000E+01    1.14660000E-01   4.02487000E-02 
   4.80331000E+00    9.19999000E-01   2.37594000E-01 
   1.45933000E+00   -3.03068000E-03   8.15854000E-01 
SP   1    1.000000
   4.83456000E-01    1.00000000E+00   1.00000000E+00 
SP   1    1.000000
   1.45585000E-01    1.00000000E+00   1.00000000E+00 
SP   1    1.000000
   4.38000000E-02    1.00000000E+00   1.00000000E+00 
SP   1    1.000000
   1.31927711E-02    1.00000000E+00   1.00000000E+00 
D    1    1.000000
   6.26000000E-01    1.00000000E+00 

4    0
S    3    1.000000
   3.38650000E+01    2.54938000E-02 
   5.09479000E+00    1.90373000E-01 
   1.15879000E+00    8.52161000E-01 
S    1    1.000000
   3.25840000E-01    1.00000000E+00 
S    1    1.000000
   1.02741000E-01    1.00000000E+00 
S    1    1.000000
   3.60000000E-02    1.00000000E+00 
P    1    1.000000
   7.50000000E-01    1.00000000E+00 

5    0
S    1    1.000000
   4.56324000E+03    1.96665000E-03 
S    1    1.000000
   6.82024000E+02    1.52306000E-02 
S    1    1.000000
   1.54973000E+02    7.61269000E-02 
S    1    1.000000
   4.44553000E+01    2.60801000E-01 
S    1    1.000000
   1.30290000E+01    6.16462000E-01 
S    1    1.000000
   1.82773000E+00    2.21006000E-01 
SP   3    1.000000
   2.09642000E+01    1.14660000E-01   4.02487000E-02 
   4.80331000E+00    9.19999000E-01   2.37594000E-01 
   1.45933000E+00   -3.03068000E-03   8.15854000E-01 
SP   1    1.000000
   4.83456000E-01    1.00000000E+00   1.00000000E+00 
SP   1    1.000000
   1.45585000E-01    1.00000000E+00   1.00000000E+00 
SP   1    1.000000
   4.38000000E-02    1.00000000E+00   1.00000000E+00 
SP   1    1.000000
   1.31927711E-02    1.00000000E+00   1.00000000E+00 
D    1    1.000000
   6.26000000E-01    1.00000000E+00 

6    0
S    3    1.000000
   3.38650000E+01    2.54938000E-02 
   5.09479000E+00    1.90373000E-01 
   1.15879000E+00    8.52161000E-01 
S    1    1.000000
   3.25840000E-01    1.00000000E+00 
S    1    1.000000
   1.02741000E-01    1.00000000E+00 
S    1    1.000000
   3.60000000E-02    1.00000000E+00 
P    1    1.000000
   7.50000000E-01    1.00000000E+00 

7    0
S    1    1.000000
   4.56324000E+03    1.96665000E-03 
S    1    1.000000
   6.82024000E+02    1.52306000E-02 
S    1    1.000000
   1.54973000E+02    7.61269000E-02 
S    1    1.000000
   4.44553000E+01    2.60801000E-01 
S    1    1.000000
   1.30290000E+01    6.16462000E-01 
S    1    1.000000
   1.82773000E+00    2.21006000E-01 
SP   3    1.000000
   2.09642000E+01    1.14660000E-01   4.02487000E-02 
   4.80331000E+00    9.19999000E-01   2.37594000E-01 
   1.45933000E+00   -3.03068000E-03   8.15854000E-01 
SP   1    1.000000
   4.83456000E-01    1.00000000E+00   1.00000000E+00 
SP   1    1.000000
   1.45585000E-01    1.00000000E+00   1.00000000E+00 
SP   1    1.000000
   4.38000000E-02    1.00000000E+00   1.00000000E+00 
SP   1    1.000000
   1.31927711E-02    1.00000000E+00   1.00000000E+00 
D    1    1.000000
   6.26000000E-01    1.00000000E+00 

8    0
S    3    1.000000
   3.38650000E+01    2.54938000E-02 
   5.09479000E+00    1.90373000E-01 
   1.15879000E+00    8.52161000E-01 
S    1    1.000000
   3.25840000E-01    1.00000000E+00 
S    1    1.000000
   1.02741000E-01    1.00000000E+00 
S    1    1.000000
   3.60000000E-02    1.00000000E+00 
P    1    1.000000
   7.50000000E-01    1.00000000E+00 

9    0
S    1    1.000000
   4.56324000E+03    1.96665000E-03 
S    1    1.000000
   6.82024000E+02    1.52306000E-02 
S    1    1.000000
   1.54973000E+02    7.61269000E-02 
S    1    1.000000
   4.44553000E+01    2.60801000E-01 
S    1    1.000000
   1.30290000E+01    6.16462000E-01 
S    1    1.000000
   1.82773000E+00    2.21006000E-01 
SP   3    1.000000
   2.09642000E+01    1.14660000E-01   4.02487000E-02 
   4.80331000E+00    9.19999000E-01   2.37594000E-01 
   1.45933000E+00   -3.03068000E-03   8.15854000E-01 
SP   1    1.000000
   4.83456000E-01    1.00000000E+00   1.00000000E+00 
SP   1    1.000000
   1.45585000E-01    1.00000000E+00   1.00000000E+00 
SP   1    1.000000
   4.38000000E-02    1.00000000E+00   1.00000000E+00 
SP   1    1.000000
   1.31927711E-02    1.00000000E+00   1.00000000E+00 
D    1    1.000000
   6.26000000E-01    1.00000000E+00 

10    0
S    3    1.000000
   3.38650000E+01    2.54938000E-02 
   5.09479000E+00    1.90373000E-01 
   1.15879000E+00    8.52161000E-01 
S    1    1.000000
   3.25840000E-01    1.00000000E+00 
S    1    1.000000
   1.02741000E-01    1.00000000E+00 
S    1    1.000000
   3.60000000E-02    1.00000000E+00 
P    1    1.000000
   7.50000000E-01    1.00000000E+00 

11    0
S    1    1.000000
   4.56324000E+03    1.96665000E-03 
S    1    1.000000
   6.82024000E+02    1.52306000E-02 
S    1    1.000000
   1.54973000E+02    7.61269000E-02 
S    1    1.000000
   4.44553000E+01    2.60801000E-01 
S    1    1.000000
   1.30290000E+01    6.16462000E-01 
S    1    1.000000
   1.82773000E+00    2.21006000E-01 
SP   3    1.000000
   2.09642000E+01    1.14660000E-01   4.02487000E-02 
   4.80331000E+00    9.19999000E-01   2.37594000E-01 
   1.45933000E+00   -3.03068000E-03   8.15854000E-01 
SP   1    1.000000
   4.83456000E-01    1.00000000E+00   1.00000000E+00 
SP   1    1.000000
   1.45585000E-01    1.00000000E+00   1.00000000E+00 
SP   1    1.000000
   4.38000000E-02    1.00000000E+00   1.00000000E+00 
SP   1    1.000000
   1.31927711E-02    1.00000000E+00   1.00000000E+00 
D    1    1.000000
   6.26000000E-01    1.00000000E+00 

12    0
S    3    1.000000
   3.38650000E+01    2.54938000E-02 
   5.09479000E+00    1.90373000E-01 
   1.15879000E+00    8.52161000E-01 
S    1    1.000000
   3.25840000E-01    1.00000000E+00 
S    1    1.000000
   1.02741000E-01    1.00000000E+00 
S    1    1.000000
   3.60000000E-02    1.00000000E+00 
P    1    1.000000
   7.50000000E-01    1.00000000E+00 

[MO]
Sym=X
Ene= 1.997343
Spin=Alpha
Occup=1
     1    4.737086681046e-04
     2    4.352622058666e-03
     3    4.590710938891e-03
     4   -3.092547885531e-02
     5    1.275891821976e-03
     6    3.283261048746e-10
     7   -6.653056381807e-16
     8    4.351783761591e-05
     9    3.297464829049e-04
    10    1.737066922972e-03
    11    5.743370730448e-03
    12    1.457339757565e-02
    13    4.158382894254e-03
    14    3.328501493114e-02
    15    2.149590728785e-02
    16    6.401307583465e-09
    17    4.148204201531e-15
    18   -8.665220296187e-02
    19    3.282857708097e-02
    20    9.977673404858e-09
    21   -1.152655385299e-15
    22   -8.564558052317e-03
    23    3.195860911183e-03
    24    2.294827008035e-09
    25    8.940579103591e-15
    26   -1.681791092062e-01
    27    6.957108156850e-02
    28   -4.849015689248e-09
    29    4.142218492148e-15
    30   -1.600403982545e-02
    31    1.528689212548e-04
    32   -4.494414452570e-09
    33   -2.473557972510e-13
    34    5.209493605019e-03
    35    7.835104621688e-16
    36   -2.672292204688e-15
    37    5.264783095980e-03
    38   -8.005734765190e-10
    39    1.026127679715e-04
    40    7.747007087222e-04
    41    4.112900236226e-03
    42    1.342497562348e-02
    43    3.372519008468e-02
    44    1.393952229830e-02
    45    8.610174503936e-02
    46    2.069499714580e-02
    47   -2.286554991880e-02
    48   -8.765336184276e-15
    49   -2.416536793954e-01
    50    3.336086730891e-02
    51   -3.064438262227e-02
    52   -1.700024870883e-14
    53   -1.276241466818e-01
    54    1.715933842156e-03
    55   -2.000124196708e-02
    56   -2.153947675110e-14
    57    8.127025229899e-02
    58   -2.103430711122e-02
    59   -3.844301461665e-02
    60   -1.686317038785e-14
    61    8.093896826404e-03
    62    4.973330131052e-03
    63   -5.725153933418e-04
    64    2.435362734854e-13
    65    1.016685960781e-02
    66    2.751451940963e-15
    67   -5.559742045792e-16
    68   -5.119076551125e-03
    69   -3.114959787587e-04
    70   -5.262183411321e-02
    71   -7.365880495797e-02
    72    7.109136342294e-03
    73    1.605819290309e-02
    74    6.618777383795e-03
    75    9.229733244866e-03
    76   -1.657299834839e-15
    77    1.026129234671e-04
    78    7.747019108716e-04
    79    4.112906253596e-03
    80    1.342499621625e-02
    81    3.372523880826e-02
    82    1.393954047043e-02
    83    8.610181422204e-02
    84   -2.069499081430e-02
    85   -2.286554768539e-02
    86   -1.328790546776e-14
    87   -2.416536980329e-01
    88   -3.336085750169e-02
    89   -3.064437940205e-02
    90   -3.644305395871e-14
    91   -1.276241775137e-01
    92   -1.715938282320e-03
    93   -2.000123849030e-02
    94   -1.265102378492e-14
    95    8.127026378311e-02
    96    2.103431414267e-02
    97   -3.844300521476e-02
    98    1.330801736843e-14
    99    8.093897218585e-03
   100   -4.973332024233e-03
   101   -5.725205166165e-04
   102   -2.971678018110e-13
   103    1.016686042575e-02
   104   -1.585483903228e-15
   105    1.879559954678e-15
   106   -5.119076257046e-03
   107    3.114946505321e-04
   108   -5.262183894628e-02
   109   -7.365881076570e-02
   110    7.109133786524e-03
   111    1.605817711892e-02
   112   -6.618777571321e-03
   113    9.229734321590e-03
   114   -9.274819012085e-16
   115    4.351783766815e-05
   116    3.297464833097e-04
   117    1.737066924984e-03
   118    5.743370737374e-03
   119    1.457339759189e-02
   120    4.158382900022e-03
   121    3.328501495194e-02
   122   -2.149590728788e-02
   123   -6.404183260848e-09
   124   -1.025878763893e-14
   125   -8.665220295467e-02
   126   -3.282857708119e-02
   127   -9.980501660093e-09
   128   -1.949863192996e-14
   129   -8.564558053366e-03
   130   -3.195860913088e-03
   131   -2.272059445582e-09
   132   -2.284576302558e-14
   133   -1.681791101904e-01
   134   -6.957108162192e-02
   135    3.696210581519e-09
   136   -3.298478072054e-14
   137   -1.600403985221e-02
   138   -1.528689214496e-04
   139    4.477931067410e-09
   140    3.513922553123e-13
   141    5.209493604726e-03
   142   -1.339949362759e-15
   143   -2.172438066572e-16
   144    5.264783096024e-03
   145   -7.984387902090e-10
   146    4.737086695850e-04
   147    4.352622059686e-03
   148    4.590710938986e-03
   149   -3.092547891854e-02
   150   -1.275891821730e-03
   151   -3.280207480966e-10
   152   -3.093338495054e-15
   153    1.026127676255e-04
   154    7.747007060410e-04
   155    4.112900222899e-03
   156    1.342497557763e-02
   157    3.372518997714e-02
   158    1.393952225916e-02
   159    8.610174490074e-02
   160   -2.069499715577e-02
   161    2.286554992950e-02
   162   -6.574115615195e-15
   163   -2.416536794382e-01
   164   -3.336086732801e-02
   165    3.064438263664e-02
   166   -5.383877377229e-15
   167   -1.276241466831e-01
   168   -1.715933852322e-03
   169    2.000124198808e-02
   170   -9.503378839208e-15
   171    8.127024998183e-02
   172    2.103430720273e-02
   173    3.844301457111e-02
   174    3.693692209010e-14
   175    8.093896753185e-03
   176   -4.973330135419e-03
   177    5.725153933598e-04
   178   -3.618589164464e-13
   179    1.016685961001e-02
   180   -2.934950851461e-17
   181   -4.047513548150e-15
   182   -5.119076552946e-03
   183   -3.114959807953e-04
   184   -5.262183412327e-02
   185   -7.365880497045e-02
   186    7.109136370498e-03
   187    1.605819289676e-02
   188   -6.618777386932e-03
   189   -9.229733247297e-03
   190    2.545326182432e-16
   191    1.026129229166e-04
   192    7.747019066026e-04
   193    4.112906232351e-03
   194    1.342499614322e-02
   195    3.372523863658e-02
   196    1.393954040782e-02
   197    8.610181399874e-02
   198    2.069499082199e-02
   199    2.286554769554e-02
   200    5.172578029945e-15
   201   -2.416536980830e-01
   202    3.336085751586e-02
   203    3.064437941467e-02
   204   -2.498610354142e-15
   205   -1.276241775295e-01
   206    1.715938301320e-03
   207    2.000123850345e-02
   208    2.971277922834e-15
   209    8.127026247338e-02
   210   -2.103431505120e-02
   211    3.844300468430e-02
   212   -2.732258326440e-14
   213    8.093897171768e-03
   214    4.973332012028e-03
   215    5.725204997782e-04
   216    3.144043427954e-13
   217    1.016686042871e-02
   218   -1.805734649251e-15
   219   -8.189520099242e-16
   220   -5.119076258476e-03
   221    3.114946523842e-04
   222   -5.262183895851e-02
   223   -7.365881078020e-02
   224    7.109133792802e-03
   225    1.605817711097e-02
   226    6.618777574120e-03
   227   -9.229734325054e-03
   228    1.073402932773e-15
Sym=X
Ene= 1.997224
Spin=Alpha
Occup=1
     1    2.650214082218e-10
     2    1.522157601445e-09
     3   -4.249569381573e-10
     4   -2.291444938472e-09
     5   -4.400059259880e-10
     6    9.703590324501e-04
     7   -4.507989006803e-14
     8   -7.542045582573e-13
     9   -5.483733321074e-12
    10   -3.118496341538e-11
    11   -9.548428431369e-11
    12   -2.927214306885e-10
    13   -4.377948411847e-10
    14   -7.125371550265e-10
    15   -7.830930808853e-10
    16    2.483205738153e-02
    17   -9.482404699695e-14
    18    4.585556845368e-09
    19   -1.612425641871e-09
    20    3.823701288703e-02
    21   -2.435821300250e-13
    22   -8.949759675600e-09
    23   -3.979235412631e-10
    24    2.259935074595e-03
    25    2.621890677699e-13
    26   -7.800656461233e-08
    27    1.109952211571e-09
    28   -6.599266136839e-02
    29   -2.428251024295e-11
    30   -2.620453387612e-09
    31    1.779660149152e-09
    32    5.070734484996e-03
    33    4.289617795731e-11
    34    1.715418194958e-09
    35   -3.601876609051e-14
    36    1.467951755023e-15
    37    9.599259446953e-10
    38   -7.294106461513e-03
    39   -9.711507605715e-05
    40   -7.336575712450e-04
    41   -3.892766750820e-03
    42   -1.271550550670e-02
    43   -3.172709509902e-02
    44   -1.186256815310e-02
    45   -8.265451703691e-02
    46   -1.062669092285e-02
    47    4.056579272502e-02
    48    8.865578310777e-14
    49    2.277706881266e-01
    50   -1.885714419792e-02
    51    5.910971531858e-02
    52    2.420600867418e-13
    53    1.258622744318e-01
    54    3.230369505904e-03
    55    3.152974603126e-02
    56   -2.648389939319e-13
    57    8.856711106228e-02
    58    5.540151932958e-02
    59    2.748280724419e-02
    60    2.426381578774e-11
    61    4.544086699758e-03
    62   -5.893957227838e-03
    63   -2.542182702695e-03
    64   -4.285422904935e-11
    65   -9.194191439483e-03
    66    1.781054605788e-14
    67    3.494474216636e-14
    68    5.968581714178e-03
    69    8.007802784816e-04
    70    6.522625151883e-02
    71    9.439129836856e-02
    72   -7.206692406521e-03
    73   -3.510990638826e-02
    74   -7.748399318500e-03
    75   -1.093248125288e-02
    76    4.653144190201e-14
    77   -9.711522954173e-05
    78   -7.336587593130e-04
    79   -3.892772679174e-03
    80   -1.271552585175e-02
    81   -3.172714314255e-02
    82   -1.186258571234e-02
    83   -8.265458184133e-02
    84    1.062669049055e-02
    85    4.056579564434e-02
    86   -9.423353860472e-14
    87    2.277706876561e-01
    88    1.885714782520e-02
    89    5.910971910368e-02
    90   -2.411474002124e-13
    91    1.258622871390e-01
    92   -3.230358281602e-03
    93    3.152975180134e-02
    94    2.516589706114e-13
    95    8.856719993694e-02
    96   -5.540146613522e-02
    97    2.748287296406e-02
    98   -2.423166382579e-11
    99    4.544089603843e-03
   100    5.893956152278e-03
   101   -2.542180942730e-03
   102    4.279930587008e-11
   103   -9.194191537050e-03
   104    1.911829580265e-14
   105   -3.092601264348e-14
   106    5.968584950802e-03
   107   -8.007809580730e-04
   108    6.522625480774e-02
   109    9.439131053367e-02
   110   -7.206701579248e-03
   111   -3.510993476824e-02
   112    7.748399416597e-03
   113   -1.093248407203e-02
   114   -4.556542896748e-14
   115    1.899164990409e-12
   116    1.435574001417e-11
   117    7.537269532510e-11
   118    2.473637480954e-10
   119    6.503706306861e-10
   120    5.658932582362e-10
   121    1.180841230007e-09
   122   -7.899368038436e-10
   123    2.483205738142e-02
   124    8.132803696674e-14
   125   -4.503871473236e-09
   126   -1.621895058927e-09
   127    3.823701288721e-02
   128    2.211197907460e-13
   129    8.958094384459e-09
   130   -4.215626795279e-10
   131    2.259935067801e-03
   132   -2.586570744400e-13
   133    7.818086665008e-08
   134    1.049195368849e-09
   135   -6.599266092131e-02
   136    2.421535881585e-11
   137    2.626835013852e-09
   138    1.860792678048e-09
   139    5.070734457671e-03
   140   -4.280682790974e-11
   141   -1.718397693208e-09
   142   -3.784655093417e-14
   143   -4.236786858435e-16
   144   -9.576117898218e-10
   145    7.294106461415e-03
   146   -2.426123106314e-10
   147   -1.501859197192e-09
   148    4.395358927476e-10
   149    2.241023030004e-09
   150   -4.379822401045e-10
   151    9.703590325587e-04
   152    4.422432796806e-14
   153    9.711507669555e-05
   154    7.336575761929e-04
   155    3.892766775461e-03
   156    1.271550559142e-02
   157    3.172709529830e-02
   158    1.186256822356e-02
   159    8.265451729753e-02
   160   -1.062669092665e-02
   161    4.056579272965e-02
   162   -9.779658602268e-14
   163   -2.277706880765e-01
   164   -1.885714420262e-02
   165    5.910971533314e-02
   166   -2.421803619046e-13
   167   -1.258622743889e-01
   168    3.230369501713e-03
   169    3.152974603137e-02
   170    2.503129433797e-13
   171   -8.856711142000e-02
   172    5.540151893672e-02
   173    2.748280736131e-02
   174   -2.428733287214e-11
   175   -4.544086730119e-03
   176   -5.893957321845e-03
   177   -2.542182669178e-03
   178    4.287451409865e-11
   179    9.194191438695e-03
   180    1.789904948754e-14
   181    2.701190687913e-14
   182   -5.968581714474e-03
   183   -8.007802793780e-04
   184   -6.522625151156e-02
   185   -9.439129835507e-02
   186    7.206692379448e-03
   187    3.510990634475e-02
   188   -7.748399316799e-03
   189   -1.093248124987e-02
   190   -4.297257862648e-14
   191    9.711523010741e-05
   192    7.336587636897e-04
   193    3.892772700971e-03
   194    1.271552592669e-02
   195    3.172714331881e-02
   196    1.186258577433e-02
   197    8.265458207261e-02
   198    1.062669049230e-02
   199    4.056579565176e-02
   200    8.102207335656e-14
   201   -2.277706876155e-01
   202    1.885714782572e-02
   203    5.910971912230e-02
   204    2.241078606096e-13
   205   -1.258622871085e-01
   206   -3.230358274144e-03
   207    3.152975181883e-02
   208   -2.801251075480e-13
   209   -8.856719974852e-02
   210   -5.540146668115e-02
   211    2.748287282490e-02
   212    2.432356411856e-11
   213   -4.544089578319e-03
   214    5.893956226038e-03
   215   -2.542180972782e-03
   216   -4.293929337494e-11
   217    9.194191536387e-03
   218    1.802441243098e-14
   219   -3.282445808293e-14
   220   -5.968584950718e-03
   221    8.007809596534e-04
   222   -6.522625480385e-02
   223   -9.439131052574e-02
   224    7.206701588848e-03
   225    3.510993485552e-02
   226    7.748399415145e-03
   227   -1.093248406951e-02
   228    4.368035534713e-14
Sym=X
Ene= 1.996539
Spin=Alpha
Occup=1
     1   -6.185547448845e-09
     2   -7.781922038557e-09
     3   -8.814806077790e-10
     4   -3.826602288602e-08
     5    1.318786875606e-09
     6    2.840386860107e-04
     7   -3.103684901807e-14
     8    1.380773184271e-11
     9    1.045396827154e-10
    10    5.515832086713e-10
    11    1.805641630907e-09
    12    4.446047941788e-09
    13    1.914133472861e-09
    14    1.137345291103e-08
    15   -5.385289411989e-10
    16    2.881347963502e-02
    17   -2.544819391675e-13
    18   -2.924930653171e-08
    19   -9.750746780511e-10
    20    4.260187222104e-02
    21   -4.786069709433e-13
    22   -3.182424283068e-08
    23    4.464761719102e-09
    24   -6.699393393798e-03
    25   -3.470393403046e-13
    26    1.056038982002e-08
    27    1.567850814281e-08
    28    5.416933530414e-03
    29    1.598673412068e-13
    30   -3.747066813935e-10
    31   -2.605907536369e-09
    32    3.489709982598e-03
    33   -1.667239743161e-12
    34    1.075909820399e-09
    35    3.053330876943e-14
    36   -9.448476812517e-14
    37    6.651665486092e-10
    38   -2.856787828957e-03
    39   -7.911038231305e-05
    40   -5.984218854671e-04
    41   -3.166516378268e-03
    42   -1.036575533492e-02
    43   -2.570596404988e-02
    44   -9.180306132844e-03
    45   -6.656188329478e-02
    46    4.415129958440e-02
    47    4.982114535112e-02
    48   -2.827054536232e-13
    49    1.815179024641e-01
    50    6.714667993602e-02
    51    7.255750586958e-02
    52   -5.233317521295e-13
    53    1.346682348588e-01
    54    3.039286878435e-02
    55    5.854232740249e-02
    56   -3.452109781486e-13
    57   -3.037233727537e-01
    58    7.124016513388e-02
    59    1.248446999763e-01
    60   -1.766526935748e-13
    61   -2.931113713047e-02
    62    3.807688592574e-03
    63    3.235705317531e-03
    64    1.649588534259e-12
    65   -6.175438406617e-03
    66   -2.650558327492e-14
    67    5.481757499928e-14
    68   -7.125836585309e-03
    69    1.002094945411e-02
    70    8.982098662223e-02
    71    1.340208098941e-01
    72    9.020215223358e-03
    73   -6.074179467391e-02
    74   -6.971463373714e-03
    75   -1.242871156467e-02
    76   -3.283984780202e-14
    77    7.911032793272e-05
    78    5.984214663014e-04
    79    3.166514263662e-03
    80    1.036574814960e-02
    81    2.570594701692e-02
    82    9.180300031865e-03
    83    6.656185565615e-02
    84    4.415131613996e-02
    85   -4.982113041423e-02
    86   -3.139719494310e-13
    87   -1.815178779444e-01
    88    6.714670573388e-02
    89   -7.255748218119e-02
    90   -5.333255771372e-13
    91   -1.346682090149e-01
    92    3.039287729221e-02
    93   -5.854232741027e-02
    94   -4.223630171704e-13
    95    3.037233689479e-01
    96    7.124017282022e-02
    97   -1.248447104714e-01
    98    1.200178515474e-13
    99    2.931113806064e-02
   100    3.807669866276e-03
   101   -3.235712408003e-03
   102   -1.623506391040e-12
   103    6.175437606856e-03
   104   -1.531389092941e-13
   105   -3.242147402545e-14
   106    7.125839902223e-03
   107    1.002094799501e-02
   108   -8.982097925398e-02
   109   -1.340207992395e-01
   110   -9.020212563279e-03
   111    6.074182602401e-02
   112   -6.971461551272e-03
   113    1.242871068811e-02
   114   -2.254183233076e-14
   115    1.350372381808e-11
   116    1.021889728526e-10
   117    5.398786340657e-10
   118    1.765393901485e-09
   119    4.351355539163e-09
   120    1.880068851826e-09
   121    1.125148526272e-08
   122    5.537378431125e-10
   123   -2.881347963183e-02
   124   -3.162516437393e-13
   125   -2.928063516005e-08
   126    9.975655230914e-10
   127   -4.260187221640e-02
   128   -5.255003543018e-13
   129   -3.187084636256e-08
   130   -4.455824136623e-09
   131    6.699393406585e-03
   132   -3.891631410269e-13
   133    9.519957859955e-09
   134   -1.567042866298e-08
   135   -5.416932808421e-03
   136   -1.213564692484e-13
   137   -4.163392024960e-10
   138    2.598321205462e-09
   139   -3.489709969632e-03
   140    1.588532867901e-12
   141    1.075325706468e-09
   142   -6.492847811657e-14
   143   -9.409335129819e-14
   144    6.642909719031e-10
   145   -2.856787829038e-03
   146   -6.203720976594e-09
   147   -7.808015409620e-09
   148   -8.804453138876e-10
   149   -3.826261914466e-08
   150   -1.323787557812e-09
   151   -2.840386856297e-04
   152   -9.839846963184e-15
   153   -7.911038213962e-05
   154   -5.984218841230e-04
   155   -3.166516371568e-03
   156   -1.036575531192e-02
   157   -2.570596399546e-02
   158   -9.180306111898e-03
   159   -6.656188322194e-02
   160   -4.415129958119e-02
   161   -4.982114535331e-02
   162   -2.967074077326e-13
   163    1.815179024615e-01
   164   -6.714667992386e-02
   165   -7.255750587032e-02
   166   -4.736221948226e-13
   167    1.346682348543e-01
   168   -3.039286880547e-02
   169   -5.854232738788e-02
   170   -3.814789970859e-13
   171   -3.037233721641e-01
   172   -7.124016586755e-02
   173   -1.248446995124e-01
   174    1.491355583938e-13
   175   -2.931113711662e-02
   176   -3.807688602875e-03
   177   -3.235705310978e-03
   178   -1.637932392544e-12
   179   -6.175438405172e-03
   180   -7.432530612265e-14
   181   -2.620313537976e-14
   182   -7.125836583680e-03
   183    1.002094945434e-02
   184    8.982098662025e-02
   185    1.340208098987e-01
   186    9.020215218198e-03
   187   -6.074179463315e-02
   188    6.971463375539e-03
   189    1.242871156867e-02
   190   -9.049718841152e-15
   191    7.911032777718e-05
   192    5.984214650968e-04
   193    3.166514257646e-03
   194    1.036574812897e-02
   195    2.570594696803e-02
   196    9.180300013079e-03
   197    6.656185558922e-02
   198   -4.415131613970e-02
   199    4.982113041072e-02
   200   -2.629836810129e-13
   201   -1.815178779342e-01
   202   -6.714670572744e-02
   203    7.255748217358e-02
   204   -4.423845874179e-13
   205   -1.346682089656e-01
   206   -3.039287730046e-02
   207    5.854232738629e-02
   208   -3.197633651506e-13
   209    3.037233706583e-01
   210   -7.124017287327e-02
   211    1.248447102727e-01
   212   -1.536384297993e-13
   213    2.931113809912e-02
   214   -3.807669860488e-03
   215    3.235712400683e-03
   216    1.632565818296e-12
   217    6.175437605485e-03
   218   -1.065425518381e-13
   219   -1.098383034608e-13
   220    7.125839901259e-03
   221    1.002094799482e-02
   222   -8.982097924880e-02
   223   -1.340207992366e-01
   224   -9.020212633393e-03
   225    6.074182589293e-02
   226    6.971461552809e-03
   227   -1.242871069156e-02
   228   -1.909643501197e-14
Sym=X
Ene= 1.996434
Spin=Alpha
Occup=1
     1    7.774388000339e-03
     2    8.570806325179e-03
     3   -1.918758983865e-02
     4   -2.969377292535e-02
     5   -4.940958013312e-03
     6   -3.340529421219e-10
     7    3.791701542274e-14
     8   -4.678113560601e-05
     9   -3.550435902576e-04
    10   -1.867333177272e-03
    11   -6.188235776677e-03
    12   -1.549035793006e-02
    13   -3.367554992005e-03
    14   -3.689804273332e-02
    15   -5.287157686086e-03
    16    5.923422840897e-10
    17    9.339398092208e-14
    18    9.354014993988e-02
    19   -9.637393907139e-03
    20   -9.914014089604e-10
    21    2.131644224770e-13
    22   -6.208396587032e-03
    23    7.584682000137e-03
    24    1.781254374924e-09
    25   -9.678931214550e-14
    26    8.141232360613e-02
    27    3.713049724113e-02
    28   -6.020291551452e-08
    29    1.911246100803e-11
    30    4.050101095949e-03
    31   -1.440575705392e-03
    32    1.966926569385e-10
    33   -3.429223052706e-11
    34   -5.678001136258e-03
    35    2.367798803716e-14
    36    2.136327166529e-15
    37   -1.644791131215e-02
    38    1.901683910701e-09
    39   -8.226775825638e-05
    40   -6.225212969201e-04
    41   -3.291651967011e-03
    42   -1.078136780170e-02
    43   -2.667674371824e-02
    44   -8.970238862481e-03
    45   -6.903984575619e-02
    46    4.580225814266e-02
    47    4.182880597591e-02
    48   -2.855033452637e-14
    49    1.848789139337e-01
    50    6.969170693085e-02
    51    6.011136229195e-02
    52   -1.012752072322e-13
    53    1.551348802056e-01
    54    2.715373767028e-02
    55    3.464692224082e-02
    56    1.850864925420e-13
    57    3.926694925891e-02
    58   -2.579535962777e-02
    59    4.505144512365e-02
    60   -1.911190007649e-11
    61    1.573935127295e-03