[Molden Format]
[Atoms] (Angs)
  H      1    1      2.47503475      0.00000000     -0.00000000
  C      2    6      1.39359294      0.00000000     -0.00000000
  C      3    6      0.69679647      1.20688689      0.00000000
  H      4    1      1.23751738      2.14344297      0.00000000
  C      5    6     -0.69679647      1.20688689      0.00000000
  H      6    1     -1.23751738      2.14344297      0.00000000
  C      7    6     -1.39359294     -0.00000000      0.00000000
  H      8    1     -2.47503475     -0.00000000      0.00000000
  C      9    6     -0.69679647     -1.20688689     -0.00000000
  H     10    1     -1.23751738     -2.14344297     -0.00000000
  C     11    6      0.69679647     -1.20688689     -0.00000000
  H     12    1      1.23751738     -2.14344297     -0.00000000
[GTO]
1    0
S    3    1.000000
   3.38650000E+01    2.54938000E-02 
   5.09479000E+00    1.90373000E-01 
   1.15879000E+00    8.52161000E-01 
S    1    1.000000
   3.25840000E-01    1.00000000E+00 
S    1    1.000000
   1.02741000E-01    1.00000000E+00 
S    1    1.000000
   3.60000000E-02    1.00000000E+00 
P    1    1.000000
   7.50000000E-01    1.00000000E+00 

2    0
S    1    1.000000
   4.56324000E+03    1.96665000E-03 
S    1    1.000000
   6.82024000E+02    1.52306000E-02 
S    1    1.000000
   1.54973000E+02    7.61269000E-02 
S    1    1.000000
   4.44553000E+01    2.60801000E-01 
S    1    1.000000
   1.30290000E+01    6.16462000E-01 
S    1    1.000000
   1.82773000E+00    2.21006000E-01 
SP   3    1.000000
   2.09642000E+01    1.14660000E-01   4.02487000E-02 
   4.80331000E+00    9.19999000E-01   2.37594000E-01 
   1.45933000E+00   -3.03068000E-03   8.15854000E-01 
SP   1    1.000000
   4.83456000E-01    1.00000000E+00   1.00000000E+00 
SP   1    1.000000
   1.45585000E-01    1.00000000E+00   1.00000000E+00 
SP   1    1.000000
   4.38000000E-02    1.00000000E+00   1.00000000E+00 
SP   1    1.000000
   1.31927711E-02    1.00000000E+00   1.00000000E+00 
D    1    1.000000
   6.26000000E-01    1.00000000E+00 

3    0
S    1    1.000000
   4.56324000E+03    1.96665000E-03 
S    1    1.000000
   6.82024000E+02    1.52306000E-02 
S    1    1.000000
   1.54973000E+02    7.61269000E-02 
S    1    1.000000
   4.44553000E+01    2.60801000E-01 
S    1    1.000000
   1.30290000E+01    6.16462000E-01 
S    1    1.000000
   1.82773000E+00    2.21006000E-01 
SP   3    1.000000
   2.09642000E+01    1.14660000E-01   4.02487000E-02 
   4.80331000E+00    9.19999000E-01   2.37594000E-01 
   1.45933000E+00   -3.03068000E-03   8.15854000E-01 
SP   1    1.000000
   4.83456000E-01    1.00000000E+00   1.00000000E+00 
SP   1    1.000000
   1.45585000E-01    1.00000000E+00   1.00000000E+00 
SP   1    1.000000
   4.38000000E-02    1.00000000E+00   1.00000000E+00 
SP   1    1.000000
   1.31927711E-02    1.00000000E+00   1.00000000E+00 
D    1    1.000000
   6.26000000E-01    1.00000000E+00 

4    0
S    3    1.000000
   3.38650000E+01    2.54938000E-02 
   5.09479000E+00    1.90373000E-01 
   1.15879000E+00    8.52161000E-01 
S    1    1.000000
   3.25840000E-01    1.00000000E+00 
S    1    1.000000
   1.02741000E-01    1.00000000E+00 
S    1    1.000000
   3.60000000E-02    1.00000000E+00 
P    1    1.000000
   7.50000000E-01    1.00000000E+00 

5    0
S    1    1.000000
   4.56324000E+03    1.96665000E-03 
S    1    1.000000
   6.82024000E+02    1.52306000E-02 
S    1    1.000000
   1.54973000E+02    7.61269000E-02 
S    1    1.000000
   4.44553000E+01    2.60801000E-01 
S    1    1.000000
   1.30290000E+01    6.16462000E-01 
S    1    1.000000
   1.82773000E+00    2.21006000E-01 
SP   3    1.000000
   2.09642000E+01    1.14660000E-01   4.02487000E-02 
   4.80331000E+00    9.19999000E-01   2.37594000E-01 
   1.45933000E+00   -3.03068000E-03   8.15854000E-01 
SP   1    1.000000
   4.83456000E-01    1.00000000E+00   1.00000000E+00 
SP   1    1.000000
   1.45585000E-01    1.00000000E+00   1.00000000E+00 
SP   1    1.000000
   4.38000000E-02    1.00000000E+00   1.00000000E+00 
SP   1    1.000000
   1.31927711E-02    1.00000000E+00   1.00000000E+00 
D    1    1.000000
   6.26000000E-01    1.00000000E+00 

6    0
S    3    1.000000
   3.38650000E+01    2.54938000E-02 
   5.09479000E+00    1.90373000E-01 
   1.15879000E+00    8.52161000E-01 
S    1    1.000000
   3.25840000E-01    1.00000000E+00 
S    1    1.000000
   1.02741000E-01    1.00000000E+00 
S    1    1.000000
   3.60000000E-02    1.00000000E+00 
P    1    1.000000
   7.50000000E-01    1.00000000E+00 

7    0
S    1    1.000000
   4.56324000E+03    1.96665000E-03 
S    1    1.000000
   6.82024000E+02    1.52306000E-02 
S    1    1.000000
   1.54973000E+02    7.61269000E-02 
S    1    1.000000
   4.44553000E+01    2.60801000E-01 
S    1    1.000000
   1.30290000E+01    6.16462000E-01 
S    1    1.000000
   1.82773000E+00    2.21006000E-01 
SP   3    1.000000
   2.09642000E+01    1.14660000E-01   4.02487000E-02 
   4.80331000E+00    9.19999000E-01   2.37594000E-01 
   1.45933000E+00   -3.03068000E-03   8.15854000E-01 
SP   1    1.000000
   4.83456000E-01    1.00000000E+00   1.00000000E+00 
SP   1    1.000000
   1.45585000E-01    1.00000000E+00   1.00000000E+00 
SP   1    1.000000
   4.38000000E-02    1.00000000E+00   1.00000000E+00 
SP   1    1.000000
   1.31927711E-02    1.00000000E+00   1.00000000E+00 
D    1    1.000000
   6.26000000E-01    1.00000000E+00 

8    0
S    3    1.000000
   3.38650000E+01    2.54938000E-02 
   5.09479000E+00    1.90373000E-01 
   1.15879000E+00    8.52161000E-01 
S    1    1.000000
   3.25840000E-01    1.00000000E+00 
S    1    1.000000
   1.02741000E-01    1.00000000E+00 
S    1    1.000000
   3.60000000E-02    1.00000000E+00 
P    1    1.000000
   7.50000000E-01    1.00000000E+00 

9    0
S    1    1.000000
   4.56324000E+03    1.96665000E-03 
S    1    1.000000
   6.82024000E+02    1.52306000E-02 
S    1    1.000000
   1.54973000E+02    7.61269000E-02 
S    1    1.000000
   4.44553000E+01    2.60801000E-01 
S    1    1.000000
   1.30290000E+01    6.16462000E-01 
S    1    1.000000
   1.82773000E+00    2.21006000E-01 
SP   3    1.000000
   2.09642000E+01    1.14660000E-01   4.02487000E-02 
   4.80331000E+00    9.19999000E-01   2.37594000E-01 
   1.45933000E+00   -3.03068000E-03   8.15854000E-01 
SP   1    1.000000
   4.83456000E-01    1.00000000E+00   1.00000000E+00 
SP   1    1.000000
   1.45585000E-01    1.00000000E+00   1.00000000E+00 
SP   1    1.000000
   4.38000000E-02    1.00000000E+00   1.00000000E+00 
SP   1    1.000000
   1.31927711E-02    1.00000000E+00   1.00000000E+00 
D    1    1.000000
   6.26000000E-01    1.00000000E+00 

10    0
S    3    1.000000
   3.38650000E+01    2.54938000E-02 
   5.09479000E+00    1.90373000E-01 
   1.15879000E+00    8.52161000E-01 
S    1    1.000000
   3.25840000E-01    1.00000000E+00 
S    1    1.000000
   1.02741000E-01    1.00000000E+00 
S    1    1.000000
   3.60000000E-02    1.00000000E+00 
P    1    1.000000
   7.50000000E-01    1.00000000E+00 

11    0
S    1    1.000000
   4.56324000E+03    1.96665000E-03 
S    1    1.000000
   6.82024000E+02    1.52306000E-02 
S    1    1.000000
   1.54973000E+02    7.61269000E-02 
S    1    1.000000
   4.44553000E+01    2.60801000E-01 
S    1    1.000000
   1.30290000E+01    6.16462000E-01 
S    1    1.000000
   1.82773000E+00    2.21006000E-01 
SP   3    1.000000
   2.09642000E+01    1.14660000E-01   4.02487000E-02 
   4.80331000E+00    9.19999000E-01   2.37594000E-01 
   1.45933000E+00   -3.03068000E-03   8.15854000E-01 
SP   1    1.000000
   4.83456000E-01    1.00000000E+00   1.00000000E+00 
SP   1    1.000000
   1.45585000E-01    1.00000000E+00   1.00000000E+00 
SP   1    1.000000
   4.38000000E-02    1.00000000E+00   1.00000000E+00 
SP   1    1.000000
   1.31927711E-02    1.00000000E+00   1.00000000E+00 
D    1    1.000000
   6.26000000E-01    1.00000000E+00 

12    0
S    3    1.000000
   3.38650000E+01    2.54938000E-02 
   5.09479000E+00    1.90373000E-01 
   1.15879000E+00    8.52161000E-01 
S    1    1.000000
   3.25840000E-01    1.00000000E+00 
S    1    1.000000
   1.02741000E-01    1.00000000E+00 
S    1    1.000000
   3.60000000E-02    1.00000000E+00 
P    1    1.000000
   7.50000000E-01    1.00000000E+00 

[MO]
Sym=X
Ene= 1.995952
Spin=Alpha
Occup=1
     1    3.024478643514e-02
     2    4.038217980509e-02
     3   -8.473587708672e-03
     4   -3.540351956776e-03
     5   -7.353698090596e-03
     6    4.286276450563e-12
     7    7.721176323996e-17
     8   -9.079026479315e-05
     9   -6.854501646112e-04
    10   -3.642273526587e-03
    11   -1.191146642735e-02
    12   -3.006449031681e-02
    13   -1.020681218408e-02
    14   -7.674368092044e-02
    15   -1.364364439498e-02
    16    6.588122733764e-10
    17   -3.062387031305e-15
    18    2.171825318141e-01
    19   -2.404623281052e-02
    20    1.319631495584e-09
    21   -4.932011980058e-15
    22    9.401614934331e-02
    23    1.842346815372e-03
    24    2.391824059385e-09
    25   -3.149661617738e-15
    26    4.389948003876e-03
    27    8.035808143363e-03
    28   -6.880510232646e-10
    29   -2.231865779201e-14
    30    3.426826062231e-04
    31   -1.594315953044e-03
    32    1.518779562402e-09
    33   -1.377756181001e-13
    34   -1.003997473249e-02
    35   -7.964531555549e-17
    36    2.481809593031e-15
    37   -3.211358412656e-03
    38   -3.573234245672e-10
    39   -9.079171528998e-05
    40   -6.854611079506e-04
    41   -3.642331802243e-03
    42   -1.191165587133e-02
    43   -3.006496227917e-02
    44   -1.020700936767e-02
    45   -7.674496147578e-02
    46   -6.821769596553e-03
    47   -1.181459458416e-02
    48   -4.320669480621e-15
    49    2.171862184051e-01
    50   -1.202307883387e-02
    51   -2.082301780347e-02
    52   -5.324218452670e-15
    53    9.401890037839e-02
    54    9.214878439023e-04
    55    1.596311556421e-03
    56   -1.612923203973e-16
    57    4.383994256773e-03
    58    4.019263008729e-03
    59    6.961618016643e-03
    60    2.390927793551e-14
    61    3.421079134274e-04
    62   -7.972094273986e-04
    63   -1.380662882726e-03
    64    1.720315035806e-13
    65   -1.004009748665e-02
    66    9.248526368972e-16
    67   -6.695540545151e-16
    68    1.605669259381e-03
    69   -2.780956527976e-03
    70    3.024628824968e-02
    71    4.038440185776e-02
    72   -8.473539615945e-03
    73   -3.541502169916e-03
    74   -3.676993891541e-03
    75   -6.368707713173e-03
    76    3.044895352553e-16
    77   -9.079188635876e-05
    78   -6.854624327231e-04
    79   -3.642338404710e-03
    80   -1.191167854573e-02
    81   -3.006501571754e-02
    82   -1.020702897433e-02
    83   -7.674503242532e-02
    84    6.821770242030e-03
    85   -1.181459437164e-02
    86   -1.054578879621e-14
    87    2.171862109858e-01
    88    1.202308022973e-02
    89   -2.082301755111e-02
    90   -5.315587896257e-15
    91    9.401890770914e-02
    92   -9.214844588324e-04
    93    1.596310470961e-03
    94   -1.527268708429e-14
    95    4.383993687908e-03
    96   -4.019264013965e-03
    97    6.961619331987e-03
    98   -1.812902413091e-14
    99    3.421078429562e-04
   100    7.972092332003e-04
   101   -1.380659481122e-03
   102   -1.279348043869e-13
   103   -1.004009759928e-02
   104    2.401461310191e-16
   105    7.457573370510e-16
   106    1.605669795486e-03
   107    2.780956735096e-03
   108    3.024628682601e-02
   109    4.038439910509e-02
   110   -8.473538422402e-03
   111   -3.541505836620e-03
   112    3.676993764833e-03
   113   -6.368707481744e-03
   114   -1.607398946056e-15
   115   -9.079026495078e-05
   116   -6.854501658310e-04
   117   -3.642273532666e-03
   118   -1.191146644823e-02
   119   -3.006449036599e-02
   120   -1.020681220189e-02
   121   -7.674368098538e-02
   122    1.364364439524e-02
   123   -6.697712996433e-10
   124   -7.494334375689e-15
   125    2.171825318058e-01
   126    2.404623281038e-02
   127   -1.345515420327e-09
   128   -1.220570568007e-14
   129    9.401614934098e-02
   130   -1.842346813822e-03
   131   -2.395675768490e-09
   132   -1.339909197683e-14
   133    4.389948202346e-03
   134   -8.035808123999e-03
   135    8.726206983669e-10
   136    3.977170665070e-14
   137    3.426826123987e-04
   138    1.594315954528e-03
   139   -1.526018268123e-09
   140    5.931327602951e-14
   141   -1.003997473209e-02
   142   -1.905973882626e-15
   143   -1.563238292332e-15
   144   -3.211358412942e-03
   145   -3.632686349979e-10
   146    3.024478643348e-02
   147    4.038217980394e-02
   148   -8.473587706613e-03
   149   -3.540351933442e-03
   150    7.353698090031e-03
   151   -6.963784706046e-12
   152    2.040970375153e-15
   153   -9.079171404498e-05
   154   -6.854610983095e-04
   155   -3.642331754220e-03
   156   -1.191165570630e-02
   157   -3.006496189061e-02
   158   -1.020700922666e-02
   159   -7.674496096339e-02
   160    6.821769601398e-03
   161    1.181459457962e-02
   162   -6.419049719742e-15
   163    2.171862184715e-01
   164    1.202307884811e-02
   165    2.082301779763e-02
   166   -1.814831686280e-14
   167    9.401890040872e-02
   168   -9.214878427303e-04
   169   -1.596311557173e-03
   170    9.623894170272e-16
   171    4.383994642934e-03
   172   -4.019263001508e-03
   173   -6.961618014321e-03
   174   -5.912574833638e-14
   175    3.421079278410e-04
   176    7.972094366385e-04
   177    1.380662888989e-03
   178   -1.755945893605e-14
   179   -1.004009749002e-02
   180    2.312016693714e-15
   181   -9.550103050644e-16
   182    1.605669261465e-03
   183   -2.780956524747e-03
   184    3.024628826313e-02
   185    4.038440186854e-02
   186   -8.473539608799e-03
   187   -3.541502165556e-03
   188    3.676993895244e-03
   189    6.368707716374e-03
   190   -7.077795817084e-16
   191   -9.079188495813e-05
   192   -6.854624218747e-04
   193   -3.642338350662e-03
   194   -1.191167836004e-02
   195   -3.006501528024e-02
   196   -1.020702881555e-02
   197   -7.674503184865e-02
   198   -6.821770245131e-03
   199    1.181459436807e-02
   200   -8.682682574583e-15
   201    2.171862110596e-01
   202   -1.202308024028e-02
   203    2.082301754822e-02
   204   -8.000564976648e-16
   205    9.401890775003e-02
   206    9.214844546780e-04
   207   -1.596310468701e-03
   208   -1.425783364827e-14
   209    4.383993876607e-03
   210    4.019264187034e-03
   211   -6.961619252113e-03
   212    5.287827937873e-14
   213    3.421078513095e-04
   214   -7.972092386675e-04
   215    1.380659486210e-03
   216    6.116258793228e-14
   217   -1.004009760316e-02
   218    4.646277720830e-15
   219    1.714573694449e-15
   220    1.605669796802e-03
   221    2.780956732338e-03
   222    3.024628684075e-02
   223    4.038439911781e-02
   224   -8.473538417399e-03
   225   -3.541505860272e-03
   226   -3.676993768407e-03
   227    6.368707485804e-03
   228   -1.166479798766e-15
Sym=X
Ene= 1.995079
Spin=Alpha
Occup=1
     1    9.590371111830e-09
     2    1.188964286122e-08
     3    1.193291627606e-10
     4    1.690215980484e-09
     5   -1.539715228191e-09
     6   -1.489670524412e-03
     7    6.234648846277e-14
     8   -1.339362285609e-11
     9   -1.015819784991e-10
    10   -5.357121479869e-10
    11   -1.764873565243e-09
    12   -4.320205574347e-09
    13   -6.796037377864e-10
    14   -1.142064640901e-08
    15    6.088664741830e-09
    16   -3.583489757778e-02
    17    1.271885136074e-13
    18    2.797239372331e-08
    19    8.889149422401e-09
    20   -5.566431060405e-02
    21    3.320812741694e-13
    22    2.469448088543e-08
    23    6.574659649178e-09
    24   -1.044644551392e-02
    25   -3.656436248643e-13
    26    1.350575994597e-07
    27    2.362549945990e-09
    28    6.501495274544e-02
    29    3.373385400230e-11
    30    4.588374165969e-09
    31   -3.123170917039e-09
    32   -5.333739700230e-03
    33   -5.956759951881e-11
    34   -2.967592851256e-09
    35    5.066305305842e-14
    36   -2.291545968564e-15
    37   -1.180036219052e-09
    38    8.228327870504e-03
    39    9.975545686206e-05
    40    7.544130084401e-04
    41    3.998048387647e-03
    42    1.310796905685e-02
    43    3.268732257029e-02
    44    9.029723478710e-03
    45    8.495157936472e-02
    46   -3.302305581812e-04
    47   -3.640733507513e-02
    48   -1.255847301510e-13
    49   -2.322946080058e-01
    50    2.777047497759e-03
    51   -5.085502799997e-02
    52   -3.358265306117e-13
    53   -1.223964260045e-01
    54   -9.876630987085e-03
    55   -2.755356979456e-02
    56    3.556684353045e-13
    57   -8.634911959235e-02
    58   -5.250518983904e-02
    59   -2.592653399901e-02
    60   -3.367357541072e-11
    61   -4.311005770594e-03
    62    4.590742979842e-03
    63    2.617633519307e-03
    64    5.948877920434e-11
    65    9.336003631036e-03
    66   -2.565767223140e-14
    67   -4.642840770904e-14
    68   -4.819867147330e-03
    69    1.198795644022e-04
    70   -6.508587535796e-02
    71   -9.358913880175e-02
    72    6.353275221909e-03
    73    3.243719271241e-02
    74    7.352118206044e-03
    75    1.124455127382e-02
    76   -6.370861822057e-14
    77    9.975561854400e-05
    78    7.544142573775e-04
    79    3.998054653347e-03
    80    1.310799046720e-02
    81    3.268737335334e-02
    82    9.029741577238e-03
    83    8.495165387130e-02
    84    3.302402853941e-04
    85   -3.640733846580e-02
    86    1.296227741994e-13
    87   -2.322946406625e-01
    88   -2.777039086979e-03
    89   -5.085503043956e-02
    90    3.319565889495e-13
    91   -1.223964559412e-01
    92    9.876624866792e-03
    93   -2.755357447126e-02
    94   -3.440566980801e-13
    95   -8.634927150269e-02
    96    5.250509649281e-02
    97   -2.592664713431e-02
    98    3.363071012263e-11
    99   -4.311010817072e-03
   100   -4.590741102824e-03
   101    2.617631017000e-03
   102   -5.942099574231e-11
   103    9.336004081866e-03
   104   -2.635725026967e-14
   105    4.329353878507e-14
   106   -4.819869736462e-03
   107   -1.198802048673e-04
   108   -6.508588848883e-02
   109   -9.358916986537e-02
   110    6.353290589298e-03
   111    3.243723927293e-02
   112   -7.352120228124e-03
   113    1.124455684815e-02
   114    6.269473089104e-14
   115    1.229679486695e-11
   116    9.308226421592e-11
   117    4.933851886620e-10
   118    1.619419378475e-09
   119    3.978196294811e-09
   120    5.573896951680e-10
   121    1.097142717541e-08
   122    6.098136805790e-09
   123   -3.583489757768e-02
   124   -1.195941949149e-13
   125   -2.805621148430e-08
   126    8.904170184671e-09
   127   -5.566431060464e-02
   128   -3.167080379885e-13
   129   -2.468757125260e-08
   130    6.609144442778e-09
   131   -1.044644549976e-02
   132    3.558826851119e-13
   133   -1.352952612138e-07
   134    2.462759433345e-09
   135    6.501495210514e-02
   136   -3.365346617670e-11
   137   -4.596054232339e-09
   138   -3.240410322479e-09
   139   -5.333739668229e-03
   140    5.945874973105e-11
   141    2.970958916605e-09
   142    5.168325253590e-14
   143    3.564003672775e-16
   144    1.176038278635e-09
   145   -8.228327870347e-03
   146   -9.615502008722e-09
   147   -1.190898513538e-08
   148   -1.385168166485e-10
   149   -1.606038450995e-09
   150   -1.540651113949e-09
   151   -1.489670524642e-03
   152   -6.162200538517e-14
   153   -9.975545747475e-05
   154   -7.544130131895e-04
   155   -3.998048411297e-03
   156   -1.310796913814e-02
   157   -3.268732276120e-02
   158   -9.029723545827e-03
   159   -8.495157961584e-02
   160   -3.302305555256e-04
   161   -3.640733508025e-02
   162    1.318133500061e-13
   163    2.322946079572e-01
   164    2.777047500936e-03
   165   -5.085502801712e-02
   166    3.303374385241e-13
   167    1.223964259563e-01
   168   -9.876630985876e-03
   169   -2.755356979596e-02
   170   -3.498659514434e-13
   171    8.634912010165e-02
   172   -5.250518928085e-02
   173   -2.592653417000e-02
   174    3.371907464063e-11
   175    4.311005813282e-03
   176    4.590743117348e-03
   177    2.617633476933e-03
   178   -5.953216190636e-11
   179   -9.336003630680e-03
   180   -2.396023883886e-14
   181   -4.006942157830e-14
   182    4.819867147314e-03
   183   -1.198795629197e-04
   184    6.508587535318e-02
   185    9.358913878852e-02
   186   -6.353275183745e-03
   187   -3.243719265615e-02
   188    7.352118204000e-03
   189    1.124455127065e-02
   190    6.004453233692e-14
   191   -9.975561908702e-05
   192   -7.544142615792e-04
   193   -3.998054674270e-03
   194   -1.310799053913e-02
   195   -3.268737352221e-02
   196   -9.029741636222e-03
   197   -8.495165409424e-02
   198    3.302402849227e-04
   199   -3.640733847353e-02
   200   -1.151855246418e-13
   201    2.322946406237e-01
   202   -2.777039085014e-03
   203   -5.085503046032e-02
   204   -3.140783630529e-13
   205    1.223964559051e-01
   206    9.876624855900e-03
   207   -2.755357450053e-02
   208    3.770975020237e-13
   209    8.634927122226e-02
   210    5.250509727842e-02
   211   -2.592664694321e-02
   212   -3.375753892284e-11
   213    4.311010779882e-03
   214   -4.590741210508e-03
   215    2.617631053785e-03
   216    5.960410615157e-11
   217   -9.336004081571e-03
   218   -2.446855223787e-14
   219    4.486524544237e-14
   220    4.819869736071e-03
   221    1.198802027671e-04
   222    6.508588848665e-02
   223    9.358916985657e-02
   224   -6.353290605862e-03
   225   -3.243723940261e-02
   226   -7.352120226197e-03
   227    1.124455684548e-02
   228   -6.080213503764e-14
Sym=X
Ene= 1.995079
Spin=Alpha
Occup=1
     1    7.515367198985e-02
     2    1.080658798254e-01
     3   -7.336423304690e-03
     4   -3.745526519577e-02
     5   -1.548916446178e-02
     6    8.109052377687e-10
     7    5.265024303532e-14
     8   -1.151871284493e-04
     9   -8.711169680177e-04
    10   -4.616526385330e-03
    11   -1.513570798901e-02
    12   -3.774389287756e-02
    13   -1.042649488991e-02
    14   -9.809312075263e-02
    15    3.659719858544e-02
    16    6.786617561068e-09
    17    1.222075261226e-13
    18    2.682291664983e-01
    19    4.925049754543e-02
    20    8.448733581125e-09
    21    3.061095732657e-13
    22    1.413292673431e-01
    23    3.325529303994e-02
    24   -2.726227094079e-10
    25   -2.555422058423e-13
    26    9.970739153021e-02
    27    5.624029837109e-02
    28   -7.732543505076e-08
    29    2.789254841072e-11
    30    4.977923191851e-03
    31   -5.268047890024e-03
    32    4.264085526566e-10
    33   -4.887448618126e-11
    34   -1.078025236680e-02
    35    3.782072523666e-14
    36    1.155287997476e-15
    37   -2.902904055432e-03
    38    6.562255344358e-10
    39   -5.759471266444e-05
    40   -4.355671765881e-04
    41   -2.308309139100e-03
    42   -7.568004320081e-03
    43   -1.887231632917e-02
    44   -5.213372626568e-03
    45   -4.904753038364e-02
    46    3.602616490047e-02
    47    3.310343007284e-04
    48   -7.303699086416e-14
    49    1.341171812181e-01
    50    5.406190034460e-02
    51   -2.775902329877e-03
    52   -2.173078591912e-13
    53    7.066753095995e-02
    54    1.614911586882e-02
    55    9.877112418330e-03
    56    3.242620568493e-13
    57    4.985378897552e-02
    58   -3.470099523087e-02
    59    5.250515674517e-02
    60   -2.789761592317e-11
    61    2.488957439815e-03
    62    2.683264204336e-03
    63   -4.590757314225e-03
    64    4.888149446546e-11
    65   -5.390187425434e-03
    66   -2.154233189949e-14
    67   -3.988986475288e-14
    68   -5.445735533709e-03
    69   -4.819630936737e-03
    70    3.757832534177e-02
    71    5.403518212530e-02
    72   -3.667782708914e-03
    73   -1.872758067608e-02
    74   -2.755133340753e-03
    75   -7.352230019502e-03
    76   -4.872453368673e-14
    77    5.759460413654e-05
    78    4.355663403752e-04
    79    2.308304913620e-03
    80    7.567989957468e-03
    81    1.887228215242e-02
    82    5.213361889160e-03
    83    4.904747393607e-02
    84    3.602615655461e-02
    85   -3.310254144600e-04
    86    1.392721925646e-13
    87   -1.341171285919e-01
    88    5.406188706384e-02
    89    2.775911495332e-03
    90    3.224767678488e-13
    91   -7.066748960098e-02
    92    1.614910584535e-02
    93   -9.877109239785e-03
    94   -2.409347302590e-13
    95   -4.985354977206e-02
    96   -3.470107816950e-02
    97   -5.250516726096e-02
    98    2.790184991242e-11
    99   -2.488949385516e-03
   100    2.683265034850e-03
   101    4.590755669601e-03
   102   -4.885524341391e-11
   103    5.390183659747e-03
   104   -2.107184926264e-14
   105    3.113606142758e-14
   106    5.445735430212e-03
   107   -4.819628109781e-03
   108   -3.757830682134e-02
   109   -5.403515029368e-02
   110    3.667773616219e-03
   111    1.872755546601e-02
   112   -2.755130383586e-03
   113    7.352225600283e-03
   114    5.177865997809e-14
   115    1.151871284089e-04
   116    8.711169677045e-04
   117    4.616526383773e-03
   118    1.513570798366e-02
   119    3.774389286500e-02
   120    1.042649488562e-02
   121    9.809312073600e-02
   122    3.659719858486e-02
   123    6.791367679394e-09
   124   -7.572864021801e-14
   125   -2.682291665009e-01
   126    4.925049754392e-02
   127    8.465646184905e-09
   128   -2.198712489830e-13
   129   -1.413292673524e-01
   130    3.325529304017e-02
   131   -3.034062638471e-10
   132    3.186069508579e-13
   133   -9.970739133589e-02
   134    5.624029833103e-02
   135   -7.760003970501e-08
   136   -2.789551589046e-11
   137   -4.977923181895e-03
   138   -5.268047843699e-03
   139    3.815925095797e-10
   140    4.883604479283e-11
   141    1.078025236688e-02
   142    4.572745721803e-14
   143    7.822706268276e-16
   144    2.902904055747e-03
   145   -6.551661779518e-10
   146   -7.515367198932e-02
   147   -1.080658798241e-01
   148    7.336423304539e-03
   149    3.745526513861e-02
   150   -1.548916446212e-02
   151    8.101220739160e-10
   152   -4.883298494036e-14
   153    5.759471226993e-05
   154    4.355671735276e-04
   155    2.308309123869e-03
   156    7.568004267721e-03
   157    1.887231620597e-02
   158    5.213372581763e-03
   159    4.904753022293e-02
   160    3.602616490610e-02
   161    3.310343091625e-04
   162    1.235036676962e-13
   163   -1.341171812511e-01
   164    5.406190035287e-02
   165   -2.775902311078e-03
   166    3.053574962165e-13
   167   -7.066753097854e-02
   168    1.614911590857e-02
   169    9.877112432415e-03
   170   -2.577133814507e-13
   171   -4.985378874119e-02
   172   -3.470099483133e-02
   173    5.250515668932e-02
   174    2.789843009143e-11
   175   -2.488957415885e-03
   176    2.683264165844e-03
   177   -4.590757269178e-03
   178   -4.883142639833e-11
   179    5.390187427232e-03
   180   -2.470040819551e-14
   181   -3.166761116835e-14
   182    5.445735535229e-03
   183    4.819630933332e-03
   184   -3.757832535603e-02
   185   -5.403518213142e-02
   186    3.667782727939e-03
   187    1.872758078194e-02
   188   -2.755133340237e-03
   189   -7.352230019030e-03
   190    5.394256251667e-14
   191   -5.759460393269e-05
   192   -4.355663388004e-04
   193   -2.308304905760e-03
   194   -7.567989930485e-03
   195   -1.887228208882e-02
   196   -5.213361865414e-03
   197   -4.904747385391e-02
   198    3.602615656108e-02
   199   -3.310254223330e-04
   200   -9.110188721866e-14
   201    1.341171286104e-01
   202    5.406188707445e-02
   203    2.775911476865e-03
   204   -2.445731577039e-13
   205    7.066748962321e-02
   206    1.614910588717e-02
   207   -9.877109253792e-03
   208    2.889141075067e-13
   209    4.985354929394e-02
   210   -3.470107788252e-02
   211   -5.250516719642e-02
   212   -2.787779011207e-11
   213    2.488949347833e-03
   214    2.683265094253e-03
   215    4.590755630811e-03
   216    4.884709540470e-11
   217   -5.390183661252e-03
   218   -2.137464840211e-14
   219    3.742369322282e-14
   220   -5.445735431879e-03
   221    4.819628106930e-03
   222    3.757830683196e-02
   223    5.403515029326e-02
   224   -3.667773628538e-03
   225   -1.872755546848e-02
   226   -2.755130382941e-03
   227    7.352225599352e-03
   228   -4.821397102538e-14
Sym=X
Ene= 1.993919
Spin=Alpha
Occup=1
     1   -8.081858492453e-09
     2   -1.060272498547e-08
     3    3.561173132950e-10
     4   -4.017878057540e-08
     5    1.589840903487e-09
     6    9.337044747088e-04
     7   -1.613005033523e-14
     8    1.574546634256e-11
     9    1.192241920205e-10
    10    6.290682736223e-10
    11    2.060178891801e-09
    12    5.070371287068e-09
    13    2.081191929122e-09
    14    1.301189104660e-08
    15   -1.869106192714e-09
    16    3.974523327614e-02
    17   -2.282310475607e-13
    18   -3.328574802578e-08
    19   -2.831720415025e-09
    20    5.988108824409e-02
    21   -4.043195585162e-13
    22   -3.866860251274e-08
    23    3.720837549490e-09
    24    2.190724538283e-03
    25   -3.174768762533e-13
    26    3.395578525062e-08
    27    6.538234858670e-09
    28    2.414370697506e-03
    29    2.055859084674e-13
    30    1.654847840563e-09
    31   -4.647556118063e-09
    32    5.503383687151e-03
    33   -1.965222662699e-12
    34    1.301829549952e-09
    35    3.953331635260e-14
    36   -4.079679909147e-15
    37    4.646367219707e-10
    38   -4.878903398250e-03
    39   -8.452462978290e-05
    40   -6.399476335854e-04
    41   -3.383440841151e-03
    42   -1.111381962093e-02
    43   -2.757048901185e-02
    44   -7.194375559665e-03
    45   -7.127674612801e-02
    46    4.816887928065e-02
    47    4.368577496484e-02
    48   -2.561824191213e-13
    49    1.940146368169e-01
    50    6.980255188646e-02
    51    6.102050601554e-02
    52   -4.382946425519e-13
    53    1.365311852374e-01
    54    2.919664151000e-02
    55    4.837933483192e-02
    56   -3.040973564433e-13
    57   -2.956456755366e-01
    58    7.068198296519e-02
    59    1.200104450955e-01
    60   -1.859242386099e-13
    61   -2.856074946392e-02