[Molden Format]
[Atoms] (Angs)
  H      1    1      2.47503475      0.00000000     -0.00000000
  C      2    6      1.39359294      0.00000000     -0.00000000
  C      3    6      0.69679647      1.20688689      0.00000000
  H      4    1      1.23751738      2.14344297      0.00000000
  C      5    6     -0.69679647      1.20688689      0.00000000
  H      6    1     -1.23751738      2.14344297      0.00000000
  C      7    6     -1.39359294     -0.00000000      0.00000000
  H      8    1     -2.47503475     -0.00000000      0.00000000
  C      9    6     -0.69679647     -1.20688689     -0.00000000
  H     10    1     -1.23751738     -2.14344297     -0.00000000
  C     11    6      0.69679647     -1.20688689     -0.00000000
  H     12    1      1.23751738     -2.14344297     -0.00000000
[GTO]
1    0
S    3    1.000000
   3.38650000E+01    2.54938000E-02 
   5.09479000E+00    1.90373000E-01 
   1.15879000E+00    8.52161000E-01 
S    1    1.000000
   3.25840000E-01    1.00000000E+00 
S    1    1.000000
   1.02741000E-01    1.00000000E+00 
S    1    1.000000
   3.60000000E-02    1.00000000E+00 
P    1    1.000000
   7.50000000E-01    1.00000000E+00 

2    0
S    1    1.000000
   4.56324000E+03    1.96665000E-03 
S    1    1.000000
   6.82024000E+02    1.52306000E-02 
S    1    1.000000
   1.54973000E+02    7.61269000E-02 
S    1    1.000000
   4.44553000E+01    2.60801000E-01 
S    1    1.000000
   1.30290000E+01    6.16462000E-01 
S    1    1.000000
   1.82773000E+00    2.21006000E-01 
SP   3    1.000000
   2.09642000E+01    1.14660000E-01   4.02487000E-02 
   4.80331000E+00    9.19999000E-01   2.37594000E-01 
   1.45933000E+00   -3.03068000E-03   8.15854000E-01 
SP   1    1.000000
   4.83456000E-01    1.00000000E+00   1.00000000E+00 
SP   1    1.000000
   1.45585000E-01    1.00000000E+00   1.00000000E+00 
SP   1    1.000000
   4.38000000E-02    1.00000000E+00   1.00000000E+00 
SP   1    1.000000
   1.31927711E-02    1.00000000E+00   1.00000000E+00 
D    1    1.000000
   6.26000000E-01    1.00000000E+00 

3    0
S    1    1.000000
   4.56324000E+03    1.96665000E-03 
S    1    1.000000
   6.82024000E+02    1.52306000E-02 
S    1    1.000000
   1.54973000E+02    7.61269000E-02 
S    1    1.000000
   4.44553000E+01    2.60801000E-01 
S    1    1.000000
   1.30290000E+01    6.16462000E-01 
S    1    1.000000
   1.82773000E+00    2.21006000E-01 
SP   3    1.000000
   2.09642000E+01    1.14660000E-01   4.02487000E-02 
   4.80331000E+00    9.19999000E-01   2.37594000E-01 
   1.45933000E+00   -3.03068000E-03   8.15854000E-01 
SP   1    1.000000
   4.83456000E-01    1.00000000E+00   1.00000000E+00 
SP   1    1.000000
   1.45585000E-01    1.00000000E+00   1.00000000E+00 
SP   1    1.000000
   4.38000000E-02    1.00000000E+00   1.00000000E+00 
SP   1    1.000000
   1.31927711E-02    1.00000000E+00   1.00000000E+00 
D    1    1.000000
   6.26000000E-01    1.00000000E+00 

4    0
S    3    1.000000
   3.38650000E+01    2.54938000E-02 
   5.09479000E+00    1.90373000E-01 
   1.15879000E+00    8.52161000E-01 
S    1    1.000000
   3.25840000E-01    1.00000000E+00 
S    1    1.000000
   1.02741000E-01    1.00000000E+00 
S    1    1.000000
   3.60000000E-02    1.00000000E+00 
P    1    1.000000
   7.50000000E-01    1.00000000E+00 

5    0
S    1    1.000000
   4.56324000E+03    1.96665000E-03 
S    1    1.000000
   6.82024000E+02    1.52306000E-02 
S    1    1.000000
   1.54973000E+02    7.61269000E-02 
S    1    1.000000
   4.44553000E+01    2.60801000E-01 
S    1    1.000000
   1.30290000E+01    6.16462000E-01 
S    1    1.000000
   1.82773000E+00    2.21006000E-01 
SP   3    1.000000
   2.09642000E+01    1.14660000E-01   4.02487000E-02 
   4.80331000E+00    9.19999000E-01   2.37594000E-01 
   1.45933000E+00   -3.03068000E-03   8.15854000E-01 
SP   1    1.000000
   4.83456000E-01    1.00000000E+00   1.00000000E+00 
SP   1    1.000000
   1.45585000E-01    1.00000000E+00   1.00000000E+00 
SP   1    1.000000
   4.38000000E-02    1.00000000E+00   1.00000000E+00 
SP   1    1.000000
   1.31927711E-02    1.00000000E+00   1.00000000E+00 
D    1    1.000000
   6.26000000E-01    1.00000000E+00 

6    0
S    3    1.000000
   3.38650000E+01    2.54938000E-02 
   5.09479000E+00    1.90373000E-01 
   1.15879000E+00    8.52161000E-01 
S    1    1.000000
   3.25840000E-01    1.00000000E+00 
S    1    1.000000
   1.02741000E-01    1.00000000E+00 
S    1    1.000000
   3.60000000E-02    1.00000000E+00 
P    1    1.000000
   7.50000000E-01    1.00000000E+00 

7    0
S    1    1.000000
   4.56324000E+03    1.96665000E-03 
S    1    1.000000
   6.82024000E+02    1.52306000E-02 
S    1    1.000000
   1.54973000E+02    7.61269000E-02 
S    1    1.000000
   4.44553000E+01    2.60801000E-01 
S    1    1.000000
   1.30290000E+01    6.16462000E-01 
S    1    1.000000
   1.82773000E+00    2.21006000E-01 
SP   3    1.000000
   2.09642000E+01    1.14660000E-01   4.02487000E-02 
   4.80331000E+00    9.19999000E-01   2.37594000E-01 
   1.45933000E+00   -3.03068000E-03   8.15854000E-01 
SP   1    1.000000
   4.83456000E-01    1.00000000E+00   1.00000000E+00 
SP   1    1.000000
   1.45585000E-01    1.00000000E+00   1.00000000E+00 
SP   1    1.000000
   4.38000000E-02    1.00000000E+00   1.00000000E+00 
SP   1    1.000000
   1.31927711E-02    1.00000000E+00   1.00000000E+00 
D    1    1.000000
   6.26000000E-01    1.00000000E+00 

8    0
S    3    1.000000
   3.38650000E+01    2.54938000E-02 
   5.09479000E+00    1.90373000E-01 
   1.15879000E+00    8.52161000E-01 
S    1    1.000000
   3.25840000E-01    1.00000000E+00 
S    1    1.000000
   1.02741000E-01    1.00000000E+00 
S    1    1.000000
   3.60000000E-02    1.00000000E+00 
P    1    1.000000
   7.50000000E-01    1.00000000E+00 

9    0
S    1    1.000000
   4.56324000E+03    1.96665000E-03 
S    1    1.000000
   6.82024000E+02    1.52306000E-02 
S    1    1.000000
   1.54973000E+02    7.61269000E-02 
S    1    1.000000
   4.44553000E+01    2.60801000E-01 
S    1    1.000000
   1.30290000E+01    6.16462000E-01 
S    1    1.000000
   1.82773000E+00    2.21006000E-01 
SP   3    1.000000
   2.09642000E+01    1.14660000E-01   4.02487000E-02 
   4.80331000E+00    9.19999000E-01   2.37594000E-01 
   1.45933000E+00   -3.03068000E-03   8.15854000E-01 
SP   1    1.000000
   4.83456000E-01    1.00000000E+00   1.00000000E+00 
SP   1    1.000000
   1.45585000E-01    1.00000000E+00   1.00000000E+00 
SP   1    1.000000
   4.38000000E-02    1.00000000E+00   1.00000000E+00 
SP   1    1.000000
   1.31927711E-02    1.00000000E+00   1.00000000E+00 
D    1    1.000000
   6.26000000E-01    1.00000000E+00 

10    0
S    3    1.000000
   3.38650000E+01    2.54938000E-02 
   5.09479000E+00    1.90373000E-01 
   1.15879000E+00    8.52161000E-01 
S    1    1.000000
   3.25840000E-01    1.00000000E+00 
S    1    1.000000
   1.02741000E-01    1.00000000E+00 
S    1    1.000000
   3.60000000E-02    1.00000000E+00 
P    1    1.000000
   7.50000000E-01    1.00000000E+00 

11    0
S    1    1.000000
   4.56324000E+03    1.96665000E-03 
S    1    1.000000
   6.82024000E+02    1.52306000E-02 
S    1    1.000000
   1.54973000E+02    7.61269000E-02 
S    1    1.000000
   4.44553000E+01    2.60801000E-01 
S    1    1.000000
   1.30290000E+01    6.16462000E-01 
S    1    1.000000
   1.82773000E+00    2.21006000E-01 
SP   3    1.000000
   2.09642000E+01    1.14660000E-01   4.02487000E-02 
   4.80331000E+00    9.19999000E-01   2.37594000E-01 
   1.45933000E+00   -3.03068000E-03   8.15854000E-01 
SP   1    1.000000
   4.83456000E-01    1.00000000E+00   1.00000000E+00 
SP   1    1.000000
   1.45585000E-01    1.00000000E+00   1.00000000E+00 
SP   1    1.000000
   4.38000000E-02    1.00000000E+00   1.00000000E+00 
SP   1    1.000000
   1.31927711E-02    1.00000000E+00   1.00000000E+00 
D    1    1.000000
   6.26000000E-01    1.00000000E+00 

12    0
S    3    1.000000
   3.38650000E+01    2.54938000E-02 
   5.09479000E+00    1.90373000E-01 
   1.15879000E+00    8.52161000E-01 
S    1    1.000000
   3.25840000E-01    1.00000000E+00 
S    1    1.000000
   1.02741000E-01    1.00000000E+00 
S    1    1.000000
   3.60000000E-02    1.00000000E+00 
P    1    1.000000
   7.50000000E-01    1.00000000E+00 

[MO]
Sym=X
Ene= -0.004580
Spin=Alpha
Occup=1
     1    3.391876714426e-10
     2    1.127094961358e-09
     3   -2.052319407229e-09
     4    3.261633993387e-10
     5   -8.030887066465e-10
     6   -2.942378403078e-05
     7   -8.675535841736e-16
     8   -3.938080845283e-11
     9   -3.051604739411e-10
    10   -1.521262562567e-09
    11   -5.234164637204e-09
    12   -1.234256890919e-08
    13   -5.407196830774e-09
    14   -1.692220310324e-08
    15   -4.497399527407e-10
    16   -1.198917793056e-04
    17   -1.651278067170e-16
    18    4.831516474103e-09
    19   -3.553284217671e-09
    20   -4.141522351960e-04
    21    1.349987896686e-15
    22   -4.014699914915e-09
    23    2.413362737277e-09
    24    1.364688063720e-04
    25    8.849916638759e-16
    26    5.971478577006e-09
    27   -6.321266414254e-10
    28   -1.580772454358e-04
    29   -6.371541948309e-15
    30    1.698745768737e-10
    31   -5.354175612880e-10
    32    1.362948311719e-04
    33    1.305847019114e-13
    34   -1.894656564529e-10
    35    3.452334189000e-16
    36   -1.087270484456e-15
    37   -1.578392651979e-09
    38    2.238848040700e-04
    39   -5.547102527286e-04
    40   -4.294430628456e-03
    41   -2.142193165750e-02
    42   -7.355126907175e-02
    43   -1.737393870920e-01
    44   -6.347052529449e-02
    45   -2.326613274195e-01
    46   -9.105412313595e-05
    47   -3.781743704912e-05
    48   -1.470710467898e-15
    49   -6.373375610582e-04
    50   -2.080523515104e-04
    51    5.379878843340e-05
    52    8.197752760989e-16
    53   -7.075119342501e-04
    54    2.110516856423e-04
    55    2.290822258611e-04
    56    2.698774800428e-15
    57    7.827471297462e-04
    58   -1.372235974511e-04
    59   -7.959970167116e-05
    60    1.194832408729e-14
    61    5.385398835882e-05
    62   -6.587879987042e-06
    63   -1.477066142969e-04
    64   -1.239601796389e-13
    65    7.270503543268e-05
    66    7.626511818920e-16
    67   -1.687704174419e-15
    68    1.083514922228e-04
    69    3.621658176623e-05
    70   -1.862608085545e-04
    71   -2.044936002278e-04
    72   -5.104074040037e-05
    73    6.571667754909e-05
    74    5.787909238944e-05
    75    1.296735892025e-04
    76   -3.730900408492e-16
    77    5.547204131963e-04
    78    4.294509287727e-03
    79    2.142232403581e-02
    80    7.355261626266e-02
    81    1.737425694060e-01
    82    6.347168614690e-02
    83    2.326655881735e-01
    84   -9.105339963840e-05
    85    3.781846310722e-05
    86   -2.445534812632e-16
    87    6.373590474340e-04
    88   -2.080460549377e-04
    89   -5.380214143020e-05
    90    1.834825581127e-15
    91    7.075171613975e-04
    92    2.110510742005e-04
    93   -2.290836512790e-04
    94    1.489239430887e-15
    95   -7.827494633054e-04
    96   -1.372229371098e-04
    97    7.960144459589e-05
    98   -2.357251830029e-14
    99   -5.385462689605e-05
   100   -6.589605273644e-06
   101    1.477071322601e-04
   102    1.697171241560e-13
   103   -7.270676440022e-05
   104   -2.686256770680e-16
   105   -9.649539933587e-16
   106   -1.083483429560e-04
   107    3.621792878471e-05
   108    1.862649264172e-04
   109    2.044996455426e-04
   110    5.103763312657e-05
   111   -6.571718731483e-05
   112    5.788143343941e-05
   113   -1.296771031261e-04
   114   -2.529300216227e-16
   115    3.496586159169e-11
   116    2.704177006230e-10
   117    1.349899144739e-09
   118    4.623812181575e-09
   119    1.094381114604e-08
   120    3.100400132307e-09
   121    1.426074831441e-08
   122    4.375335759180e-10
   123    1.198917796604e-04
   124    8.816633862682e-16
   125    4.910234169896e-09
   126    3.554137982892e-09
   127    4.141522384082e-04
   128    3.974722608464e-15
   129   -3.737943331827e-09
   130   -2.267766229390e-09
   131   -1.364688085173e-04
   132   -4.275878161769e-15
   133    5.930827063170e-09
   134    6.458973431933e-10
   135    1.580772475633e-04
   136    3.682870606660e-14
   137    1.682200760792e-10
   138    5.305272494459e-10
   139   -1.362948314778e-04
   140   -2.288168566006e-13
   141   -1.996399096852e-10
   142   -2.325208879974e-16
   143   -4.489816412705e-17
   144   -1.573167297587e-09
   145    2.238848059134e-04
   146    3.631616470156e-10
   147    1.169142523406e-09
   148   -2.018679685777e-09
   149    3.289397925444e-10
   150    8.235802640403e-10
   151    2.942378428594e-05
   152    5.249264304953e-16
   153   -5.547102929565e-04
   154   -4.294430939887e-03
   155   -2.142193321099e-02
   156   -7.355127440578e-02
   157   -1.737393996904e-01
   158   -6.347052989690e-02
   159   -2.326613442981e-01
   160    9.105412675103e-05
   161    3.781744883298e-05
   162    1.888135026150e-15
   163   -6.373375836355e-04
   164    2.080523340371e-04
   165   -5.379876872690e-05
   166   -2.802674273422e-15
   167   -7.075121738953e-04
   168   -2.110517399624e-04
   169   -2.290823532785e-04
   170    8.180028638565e-15
   171    7.827471333253e-04
   172    1.372235729801e-04
   173    7.959969143064e-05
   174   -3.188820258343e-14
   175    5.385398783260e-05
   176    6.587882197209e-06
   177    1.477066141086e-04
   178    2.341232955902e-13
   179    7.270503986171e-05
   180    8.255338928301e-16
   181    1.578483219812e-15
   182    1.083514859170e-04
   183    3.621656406202e-05
   184   -1.862608196781e-04
   185   -2.044936267233e-04
   186   -5.104077849743e-05
   187    6.571666676140e-05
   188   -5.787909848724e-05
   189   -1.296735953633e-04
   190   -1.247144204354e-16
   191    5.547204483499e-04
   192    4.294509559887e-03
   193    2.142232539340e-02
   194    7.355262092408e-02
   195    1.737425804154e-01
   196    6.347169016888e-02
   197    2.326656029252e-01
   198    9.105340354808e-05
   199   -3.781847464629e-05
   200    9.021389723785e-16
   201    6.373590616005e-04
   202    2.080460409453e-04
   203    5.380212212001e-05
   204   -3.609037569796e-16
   205    7.075173954729e-04
   206   -2.110511297893e-04
   207    2.290837766108e-04
   208   -2.314218601299e-15
   209   -7.827494613959e-04
   210    1.372229137858e-04
   211   -7.960143209383e-05
   212    1.601522852781e-14
   213   -5.385462598543e-05
   214    6.589606887381e-06
   215   -1.477071316121e-04
   216   -1.840236731589e-13
   217   -7.270676796259e-05
   218    9.822627194118e-16
   219   -2.617161241515e-16
   220   -1.083483387516e-04
   221    3.621791113244e-05
   222    1.862649356823e-04
   223    2.044996697463e-04
   224    5.103767198719e-05
   225   -6.571717496220e-05
   226   -5.788143838967e-05
   227    1.296771078140e-04
   228    6.663945540591e-16
Sym=X
Ene= -0.006717
Spin=Alpha
Occup=1
     1   -1.202738772833e-04
     2   -2.626492005760e-04
     3   -3.357983878434e-04
     4   -8.313628465094e-05
     5    9.376248947096e-05
     6   -4.760411144643e-10
     7   -3.703103006254e-16
     8   -4.156024429199e-04
     9   -3.217536591714e-03
    10   -1.604979336829e-02
    11   -5.510762652413e-02
    12   -1.301626448773e-01
    13   -4.755295673260e-02
    14   -1.743612557150e-01
    15   -1.089551311202e-04
    16   -6.020934562480e-10
    17   -1.172808571705e-15
    18   -2.895988933440e-04
    19   -6.206102884871e-05
    20   -5.356078401084e-09
    21    2.190743906938e-15
    22   -2.217110161673e-03
    23    1.251714767432e-03
    24    3.570369402479e-09
    25    3.698459900520e-16
    26    8.324347381228e-05
    27    1.768549645123e-04
    28   -3.637297729791e-09
    29    2.264380919029e-14
    30   -1.739101445623e-06
    31   -1.447802410367e-05
    32    4.125220924828e-10
    33   -7.292028992301e-13
    34    4.853063951742e-05
    35   -2.278158215820e-16
    36    2.916892360349e-16
    37   -1.000523879339e-04
    38    3.074780531019e-09
    39    4.705777500651e-04
    40    3.643129812647e-03
    41    1.817285814445e-02
    42    6.239670643573e-02
    43    1.473832547838e-01
    44    5.384467208060e-02
    45    1.974089788684e-01
    46    5.789663803251e-05
    47    9.278136638354e-05
    48    2.419851272799e-15
    49    3.800088330457e-04
    50    5.403586139125e-05
    51    2.336818762127e-05
    52   -4.602678281292e-15
    53    2.276742439945e-03
    54   -6.526457465803e-04
    55   -1.083710563777e-03
    56    4.608280588340e-15
    57   -1.471619086302e-04
    58   -6.178318859031e-05
    59   -1.547154299343e-04
    60   -3.135551668638e-14
    61   -1.940341623240e-06
    62    8.070422937896e-06
    63    1.944806484307e-05
    64    7.557034217275e-13
    65   -5.778411424743e-05
    66    4.657145518662e-16
    67    9.851838953061e-16
    68   -6.181614108185e-05
    69    6.692094668454e-05
    70    1.409338383296e-04
    71    2.877445931913e-04
    72    3.287187747589e-04
    73    6.988869645991e-05
    74   -5.397843505199e-05
    75   -9.968660732696e-05
    76   -6.542240436580e-16
    77   -4.705862112812e-04
    78   -3.643195315432e-03
    79   -1.817318490392e-02
    80   -6.239782829230e-02
    81   -1.473859051937e-01
    82   -5.384564050473e-02
    83   -1.974125261072e-01
    84    5.789612445115e-05
    85   -9.278170423102e-05
    86    4.839227942015e-16
    87   -3.800228049798e-04
    88    5.403006251260e-05
    89   -2.336890622833e-05
    90   -7.663034189795e-16
    91   -2.276751594262e-03
    92   -6.526436634884e-04
    93    1.083714112818e-03
    94   -1.547643213748e-15
    95    1.471717005225e-04
    96   -6.178544016714e-05
    97    1.547120208556e-04
    98    2.673193438807e-14
    99    1.940906197779e-06
   100    8.071279471488e-06
   101   -1.944870571614e-05
   102   -7.403552345741e-13
   103    5.778554289169e-05
   104    2.929201654443e-17
   105    4.614884028853e-16
   106    6.181260205243e-05
   107    6.692099556386e-05
   108   -1.409370202286e-04
   109   -2.877484549001e-04
   110   -3.287176982742e-04
   111   -6.988667097349e-05
   112   -5.398035362885e-05
   113    9.968897461529e-05
   114   -4.009658340407e-16
   115    4.156024500361e-04
   116    3.217536646790e-03
   117    1.604979364307e-02
   118    5.510762746753e-02
   119    1.301626471058e-01
   120    4.755295754679e-02
   121    1.743612586993e-01
   122   -1.089551321629e-04
   123   -6.151211506981e-10
   124   -8.455391914130e-16
   125    2.895989011031e-04
   126   -6.206102986255e-05
   127   -5.400719101609e-09
   128    1.343544183631e-15
   129    2.217110171173e-03
   130    1.251714771365e-03
   131    3.585606867164e-09
   132   -4.227388018321e-15
   133   -8.324349107069e-05
   134    1.768549598698e-04
   135   -3.669108269138e-09
   136   -1.366104088144e-14
   137    1.739100133662e-06
   138   -1.447802667485e-05
   139    4.273612364742e-10
   140    6.979867316887e-13
   141   -4.853064043295e-05
   142    1.079432021138e-16
   143    4.353063703094e-16
   144    1.000523883610e-04
   145   -3.098930769681e-09
   146    1.202738796459e-04
   147    2.626492030899e-04
   148    3.357983883801e-04
   149    8.313628230824e-05
   150    9.376249121353e-05
   151   -4.792218547604e-10
   152    2.874906144806e-16
   153   -4.705776942450e-04
   154   -3.643129380495e-03
   155   -1.817285598875e-02
   156   -6.239669903422e-02
   157   -1.473832373003e-01
   158   -5.384466569333e-02
   159   -1.974089554556e-01
   160    5.789662737698e-05
   161    9.278136339803e-05
   162    1.373967027987e-15
   163   -3.800087692480e-04
   164    5.403583548294e-05
   165    2.336819556991e-05
   166   -5.959527990781e-16
   167   -2.276742368391e-03
   168   -6.526457240914e-04
   169   -1.083710541154e-03
   170    3.967954922012e-15
   171    1.471618291989e-04
   172   -6.178319209578e-05
   173   -1.547154442703e-04
   174    6.275571030825e-15
   175    1.940336164845e-06
   176    8.070424703536e-06
   177    1.944804842061e-05
   178   -6.722277951670e-13
   179    5.778410694587e-05
   180   -2.703950699933e-16
   181   -3.734860418166e-16
   182    6.181612747551e-05
   183   -6.692095173654e-05
   184   -1.409338196162e-04
   185   -2.877445726745e-04
   186   -3.287187695008e-04
   187   -6.988870333668e-05
   188   -5.397842959216e-05
   189   -9.968659414066e-05
   190   -8.196909983450e-16
   191    4.705861474934e-04
   192    3.643194821610e-03
   193    1.817318244056e-02
   194    6.239781983450e-02
   195    1.473858852151e-01
   196    5.384563320606e-02
   197    1.974124993531e-01
   198    5.789611536073e-05
   199   -9.278169912373e-05
   200   -1.012174321281e-16
   201    3.800227312257e-04
   202    5.403004366395e-05
   203   -2.336890985990e-05
   204    1.104160019400e-15
   205    2.276751513068e-03
   206   -6.526436414648e-04
   207    1.083714085539e-03
   208   -2.637970303480e-15
   209   -1.471716039353e-04
   210   -6.178544272575e-05
   211    1.547120410499e-04
   212   -1.086222801858e-14
   213   -1.940899377467e-06
   214    8.071276620854e-06
   215   -1.944868894281e-05
   216    6.891221993996e-13
   217   -5.778553450897e-05
   218   -1.220426220348e-17
   219    3.758008746946e-17
   220   -6.181259229692e-05
   221   -6.692099832395e-05
   222    1.409369987845e-04
   223    2.877484312804e-04
   224    3.287176928834e-04
   225    6.988668003501e-05
   226   -5.398034657961e-05
   227    9.968895985160e-05
   228   -1.033655935050e-16
Sym=X
Ene= -0.011795
Spin=Alpha
Occup=1
     1    2.065924143132e-04
     2    2.225632799760e-04
     3    6.845202207005e-05
     4   -7.549082554474e-05
     5   -1.536131658426e-04
     6   -1.647426965105e-10
     7    2.736271066218e-16
     8    6.211042344847e-04
     9    4.808438097397e-03
    10    2.398595254862e-02
    11    8.235478404607e-02
    12    1.945345237187e-01
    13    7.107242638833e-02
    14    2.605111083006e-01
    15    9.011498152358e-05
    16   -6.246968814905e-10
    17    2.471833816499e-15
    18    6.864518202151e-04
    19    8.411460636858e-05
    20   -2.365459899738e-09
    21   -2.814816381051e-15
    22    8.137267509498e-04
    23   -3.532622011646e-04
    24    7.998610268627e-10
    25    7.654397526826e-15
    26   -9.097668560911e-04
    27    1.576842299356e-04
    28   -9.837642686096e-10
    29   -1.665572410714e-14
    30   -6.125866202695e-05
    31    1.499369784771e-04
    32    7.693776452274e-10
    33   -2.609124698293e-13
    34   -8.030940026974e-05
    35    3.978843819180e-16
    36    7.722283645971e-18
    37    3.433077679386e-05
    38    1.263515761869e-09
    39   -3.388591019709e-04
    40   -2.623362439410e-03
    41   -1.308613848553e-02
    42   -4.493062540731e-02
    43   -1.061331507621e-01
    44   -3.876757770948e-02
    45   -1.421249392961e-01
    46    6.716574580034e-05
    47   -9.114300418235e-05
    48   -1.683105752716e-15
    49   -4.165120819710e-04
    50    3.027059347821e-04
    51   -1.924050693266e-04
    52    4.349439189345e-15
    53   -4.106636193358e-04
    54   -1.592106043850e-05
    55    2.085886929278e-04
    56   -5.228904732094e-15
    57    4.448175260596e-04
    58    7.828042636684e-05
    59   -1.379734233785e-04
    60    7.353077367450e-15
    61    3.193880942472e-05
    62   -1.406982532860e-04
    63   -7.832844324360e-06
    64    2.943463757009e-13
    65    4.551186493157e-05
    66   -3.087135934595e-16
    67   -9.977884835538e-17
    68   -1.651956661462e-04
    69   -1.013143622512e-04
    70   -1.157450147478e-04
    71   -1.313285401715e-04
    72   -1.987416099442e-05
    73    3.823524451392e-05
    74    6.745548561128e-05
    75    6.591729390121e-05
    76    1.912227250070e-16
    77   -3.388528873921e-04
    78   -2.623314327670e-03
    79   -1.308589848940e-02
    80   -4.492980139045e-02
    81   -1.061312043076e-01
    82   -3.876686668207e-02
    83   -1.421223327081e-01
    84   -6.716679580966e-05
    85   -9.114258327263e-05
    86    1.262795348098e-15
    87   -4.165049812937e-04
    88   -3.027082274259e-04
    89   -1.924056540059e-04
    90    1.417848472278e-15
    91   -4.106556824377e-04
    92    1.592338289784e-05
    93    2.085861166690e-04
    94   -2.078585020680e-15
    95    4.448086950848e-04
    96   -7.828183400146e-05
    97   -1.379724154776e-04
    98    1.005780674754e-14
    99    3.193820025117e-05
   100    1.406981812225e-04
   101   -7.831172256399e-06
   102   -3.319713091602e-13
   103    4.551105458563e-05
   104   -7.554162183254e-17
   105    2.215056735401e-16
   106   -1.651968721546e-04
   107    1.013147584630e-04
   108   -1.157429294938e-04
   109   -1.313262482960e-04
   110   -1.987360333175e-05
   111    3.823448579540e-05
   112   -6.745483716020e-05
   113    6.591583998139e-05
   114    3.750642676109e-16
   115    6.211042322629e-04
   116    4.808438080190e-03
   117    2.398595246280e-02
   118    8.235478375139e-02
   119    1.945345230229e-01
   120    7.107242613415e-02
   121    2.605111073675e-01
   122   -9.011498030473e-05
   123    6.220406620447e-10
   124    6.892449606900e-16
   125    6.864518210350e-04
   126   -8.411460499874e-05
   127    2.342040708741e-09
   128    4.679678745017e-16
   129    8.137267290575e-04
   130    3.532621878838e-04
   131   -7.842143238859e-10
   132   -4.828971138400e-17
   133   -9.097668598672e-04
   134   -1.576842317190e-04
   135    9.670569751251e-10
   136   -1.155561838187e-15
   137   -6.125866222959e-05
   138   -1.499369783520e-04
   139   -7.676315618430e-10
   140    3.175964398560e-13
   141   -8.030940015188e-05
   142    1.675943424233e-16
   143    1.985784209161e-15
   144    3.433077515082e-05
   145    1.250086445889e-09
   146    2.065924138986e-04
   147    2.225632780953e-04
   148    6.845201829096e-05
   149   -7.549082630699e-05
   150    1.536131656565e-04
   151    1.626685816084e-10
   152   -2.982424005982e-16
   153   -3.388590770161e-04
   154   -2.623362246225e-03
   155   -1.308613752183e-02
   156   -4.493062209861e-02
   157   -1.061331429456e-01
   158   -3.876757485359e-02
   159   -1.421249288329e-01
   160   -6.716574568313e-05
   161    9.114300255542e-05
   162    5.467013516165e-16
   163   -4.165120453004e-04
   164   -3.027059246803e-04
   165    1.924050689351e-04
   166   -2.423860863971e-15
   167   -4.106635726693e-04
   168    1.592106466090e-05
   169   -2.085886737457e-04
   170    5.770853947885e-15
   171    4.448174996969e-04
   172   -7.828042268445e-05
   173    1.379734182702e-04
   174   -1.287910627022e-14
   175    3.193880806072e-05
   176    1.406982513676e-04
   177    7.832842547620e-06
   178   -2.821039994304e-13
   179    4.551186098448e-05
   180    6.731609114460e-16
   181   -1.121979099442e-16
   182   -1.651956602405e-04
   183   -1.013143622740e-04
   184   -1.157450057647e-04
   185   -1.313285280303e-04
   186   -1.987415986508e-05
   187    3.823524033072e-05
   188   -6.745548080515e-05
   189   -6.591728715272e-05
   190   -6.257956937137e-16
   191   -3.388528756079e-04
   192   -2.623314236433e-03
   193   -1.308589803427e-02
   194   -4.492979982789e-02
   195   -1.061312006157e-01
   196   -3.876686533306e-02
   197   -1.421223277687e-01
   198    6.716679392904e-05
   199    9.114258350195e-05
   200   -6.859201443598e-19
   201   -4.165049573973e-04
   202    3.027082122612e-04
   203    1.924056512013e-04
   204    4.582441645297e-16
   205   -4.106556891769e-04
   206   -1.592336947802e-05
   207   -2.085861203999e-04
   208   -6.580796996228e-15
   209    4.448086761515e-04
   210    7.828182691750e-05
   211    1.379724057525e-04
   212    1.546449383152e-14
   213    3.193819907960e-05
   214   -1.406981795602e-04
   215    7.831171339633e-06
   216    2.603549640902e-13
   217    4.551105234378e-05
   218    1.610816709653e-15
   219    8.865178631561e-17
   220   -1.651968627177e-04
   221    1.013147582088e-04
   222   -1.157429246515e-04
   223   -1.313262437548e-04
   224   -1.987360897982e-05
   225    3.823448166108e-05
   226    6.745483364175e-05
   227   -6.591583645944e-05
   228    2.592109808028e-16
Sym=X
Ene= -0.060080
Spin=Alpha
Occup=1
     1   -2.796552477247e-10
     2    5.161974491168e-10
     3    2.882001859989e-09
     4    1.358160024733e-09
     5    4.124146148111e-10
     6   -6.246146465398e-05
     7    9.227278274282e-16
     8   -3.647906903455e-11
     9   -2.814165942445e-10
    10   -1.409916231764e-09
    11   -4.810295799753e-09
    12   -1.158490667951e-08
    13   -4.245357214194e-09
    14   -1.438068543144e-08
    15    7.793504213259e-10
    16   -7.562596368290e-05
    17    6.093032438788e-17
    18   -2.981344269814e-09
    19    1.304205645522e-09
    20   -7.082496766539e-04
    21   -2.710481761804e-16
    22    1.299196102115e-08
    23   -8.484754877012e-09
    24    4.710426453855e-04
    25    2.144984584462e-16
    26    2.881067517962e-09
    27   -1.985026625814e-09
    28   -4.811188329193e-04
    29    1.807367310981e-14
    30    2.170632802774e-10
    31   -2.512015822950e-10
    32    5.516399023898e-05
    33   -9.840092224393e-14
    34    1.654424970402e-10
    35   -8.772426285376e-16
    36    4.781619578624e-16
    37    1.369535897263e-09
    38    4.049092442435e-04
    39   -5.545421440084e-04
    40   -4.293006979444e-03
    41   -2.141559463415e-02
    42   -7.352577390237e-02
    43   -1.737062405932e-01
    44   -6.346524529778e-02
    45   -2.324849920165e-01
    46    3.101086341912e-05
    47   -2.191283648655e-05
    48    5.751822093471e-16
    49   -9.119732776263e-04
    50    3.813503269607e-04
    51   -4.772519158449e-05
    52   -1.490773845511e-15
    53   -6.015299606429e-04
    54   -1.377442102832e-04
    55    2.324584660494e-04
    56    2.862819208468e-15
    57    6.447537877537e-04
    58    1.479293781542e-04
    59   -2.248933797819e-04
    60   -1.581529267846e-14
    61    3.711480087900e-05