[Molden Format]
[Atoms] (Angs)
  H      1    1      2.47503475      0.00000000     -0.00000000
  C      2    6      1.39359294      0.00000000     -0.00000000
  C      3    6      0.69679647      1.20688689      0.00000000
  H      4    1      1.23751738      2.14344297      0.00000000
  C      5    6     -0.69679647      1.20688689      0.00000000
  H      6    1     -1.23751738      2.14344297      0.00000000
  C      7    6     -1.39359294     -0.00000000      0.00000000
  H      8    1     -2.47503475     -0.00000000      0.00000000
  C      9    6     -0.69679647     -1.20688689     -0.00000000
  H     10    1     -1.23751738     -2.14344297     -0.00000000
  C     11    6      0.69679647     -1.20688689     -0.00000000
  H     12    1      1.23751738     -2.14344297     -0.00000000
[GTO]
1    0
S    3    1.000000
   3.38650000E+01    2.54938000E-02 
   5.09479000E+00    1.90373000E-01 
   1.15879000E+00    8.52161000E-01 
S    1    1.000000
   3.25840000E-01    1.00000000E+00 
S    1    1.000000
   1.02741000E-01    1.00000000E+00 
S    1    1.000000
   3.60000000E-02    1.00000000E+00 
P    1    1.000000
   7.50000000E-01    1.00000000E+00 

2    0
S    1    1.000000
   4.56324000E+03    1.96665000E-03 
S    1    1.000000
   6.82024000E+02    1.52306000E-02 
S    1    1.000000
   1.54973000E+02    7.61269000E-02 
S    1    1.000000
   4.44553000E+01    2.60801000E-01 
S    1    1.000000
   1.30290000E+01    6.16462000E-01 
S    1    1.000000
   1.82773000E+00    2.21006000E-01 
SP   3    1.000000
   2.09642000E+01    1.14660000E-01   4.02487000E-02 
   4.80331000E+00    9.19999000E-01   2.37594000E-01 
   1.45933000E+00   -3.03068000E-03   8.15854000E-01 
SP   1    1.000000
   4.83456000E-01    1.00000000E+00   1.00000000E+00 
SP   1    1.000000
   1.45585000E-01    1.00000000E+00   1.00000000E+00 
SP   1    1.000000
   4.38000000E-02    1.00000000E+00   1.00000000E+00 
SP   1    1.000000
   1.31927711E-02    1.00000000E+00   1.00000000E+00 
D    1    1.000000
   6.26000000E-01    1.00000000E+00 

3    0
S    1    1.000000
   4.56324000E+03    1.96665000E-03 
S    1    1.000000
   6.82024000E+02    1.52306000E-02 
S    1    1.000000
   1.54973000E+02    7.61269000E-02 
S    1    1.000000
   4.44553000E+01    2.60801000E-01 
S    1    1.000000
   1.30290000E+01    6.16462000E-01 
S    1    1.000000
   1.82773000E+00    2.21006000E-01 
SP   3    1.000000
   2.09642000E+01    1.14660000E-01   4.02487000E-02 
   4.80331000E+00    9.19999000E-01   2.37594000E-01 
   1.45933000E+00   -3.03068000E-03   8.15854000E-01 
SP   1    1.000000
   4.83456000E-01    1.00000000E+00   1.00000000E+00 
SP   1    1.000000
   1.45585000E-01    1.00000000E+00   1.00000000E+00 
SP   1    1.000000
   4.38000000E-02    1.00000000E+00   1.00000000E+00 
SP   1    1.000000
   1.31927711E-02    1.00000000E+00   1.00000000E+00 
D    1    1.000000
   6.26000000E-01    1.00000000E+00 

4    0
S    3    1.000000
   3.38650000E+01    2.54938000E-02 
   5.09479000E+00    1.90373000E-01 
   1.15879000E+00    8.52161000E-01 
S    1    1.000000
   3.25840000E-01    1.00000000E+00 
S    1    1.000000
   1.02741000E-01    1.00000000E+00 
S    1    1.000000
   3.60000000E-02    1.00000000E+00 
P    1    1.000000
   7.50000000E-01    1.00000000E+00 

5    0
S    1    1.000000
   4.56324000E+03    1.96665000E-03 
S    1    1.000000
   6.82024000E+02    1.52306000E-02 
S    1    1.000000
   1.54973000E+02    7.61269000E-02 
S    1    1.000000
   4.44553000E+01    2.60801000E-01 
S    1    1.000000
   1.30290000E+01    6.16462000E-01 
S    1    1.000000
   1.82773000E+00    2.21006000E-01 
SP   3    1.000000
   2.09642000E+01    1.14660000E-01   4.02487000E-02 
   4.80331000E+00    9.19999000E-01   2.37594000E-01 
   1.45933000E+00   -3.03068000E-03   8.15854000E-01 
SP   1    1.000000
   4.83456000E-01    1.00000000E+00   1.00000000E+00 
SP   1    1.000000
   1.45585000E-01    1.00000000E+00   1.00000000E+00 
SP   1    1.000000
   4.38000000E-02    1.00000000E+00   1.00000000E+00 
SP   1    1.000000
   1.31927711E-02    1.00000000E+00   1.00000000E+00 
D    1    1.000000
   6.26000000E-01    1.00000000E+00 

6    0
S    3    1.000000
   3.38650000E+01    2.54938000E-02 
   5.09479000E+00    1.90373000E-01 
   1.15879000E+00    8.52161000E-01 
S    1    1.000000
   3.25840000E-01    1.00000000E+00 
S    1    1.000000
   1.02741000E-01    1.00000000E+00 
S    1    1.000000
   3.60000000E-02    1.00000000E+00 
P    1    1.000000
   7.50000000E-01    1.00000000E+00 

7    0
S    1    1.000000
   4.56324000E+03    1.96665000E-03 
S    1    1.000000
   6.82024000E+02    1.52306000E-02 
S    1    1.000000
   1.54973000E+02    7.61269000E-02 
S    1    1.000000
   4.44553000E+01    2.60801000E-01 
S    1    1.000000
   1.30290000E+01    6.16462000E-01 
S    1    1.000000
   1.82773000E+00    2.21006000E-01 
SP   3    1.000000
   2.09642000E+01    1.14660000E-01   4.02487000E-02 
   4.80331000E+00    9.19999000E-01   2.37594000E-01 
   1.45933000E+00   -3.03068000E-03   8.15854000E-01 
SP   1    1.000000
   4.83456000E-01    1.00000000E+00   1.00000000E+00 
SP   1    1.000000
   1.45585000E-01    1.00000000E+00   1.00000000E+00 
SP   1    1.000000
   4.38000000E-02    1.00000000E+00   1.00000000E+00 
SP   1    1.000000
   1.31927711E-02    1.00000000E+00   1.00000000E+00 
D    1    1.000000
   6.26000000E-01    1.00000000E+00 

8    0
S    3    1.000000
   3.38650000E+01    2.54938000E-02 
   5.09479000E+00    1.90373000E-01 
   1.15879000E+00    8.52161000E-01 
S    1    1.000000
   3.25840000E-01    1.00000000E+00 
S    1    1.000000
   1.02741000E-01    1.00000000E+00 
S    1    1.000000
   3.60000000E-02    1.00000000E+00 
P    1    1.000000
   7.50000000E-01    1.00000000E+00 

9    0
S    1    1.000000
   4.56324000E+03    1.96665000E-03 
S    1    1.000000
   6.82024000E+02    1.52306000E-02 
S    1    1.000000
   1.54973000E+02    7.61269000E-02 
S    1    1.000000
   4.44553000E+01    2.60801000E-01 
S    1    1.000000
   1.30290000E+01    6.16462000E-01 
S    1    1.000000
   1.82773000E+00    2.21006000E-01 
SP   3    1.000000
   2.09642000E+01    1.14660000E-01   4.02487000E-02 
   4.80331000E+00    9.19999000E-01   2.37594000E-01 
   1.45933000E+00   -3.03068000E-03   8.15854000E-01 
SP   1    1.000000
   4.83456000E-01    1.00000000E+00   1.00000000E+00 
SP   1    1.000000
   1.45585000E-01    1.00000000E+00   1.00000000E+00 
SP   1    1.000000
   4.38000000E-02    1.00000000E+00   1.00000000E+00 
SP   1    1.000000
   1.31927711E-02    1.00000000E+00   1.00000000E+00 
D    1    1.000000
   6.26000000E-01    1.00000000E+00 

10    0
S    3    1.000000
   3.38650000E+01    2.54938000E-02 
   5.09479000E+00    1.90373000E-01 
   1.15879000E+00    8.52161000E-01 
S    1    1.000000
   3.25840000E-01    1.00000000E+00 
S    1    1.000000
   1.02741000E-01    1.00000000E+00 
S    1    1.000000
   3.60000000E-02    1.00000000E+00 
P    1    1.000000
   7.50000000E-01    1.00000000E+00 

11    0
S    1    1.000000
   4.56324000E+03    1.96665000E-03 
S    1    1.000000
   6.82024000E+02    1.52306000E-02 
S    1    1.000000
   1.54973000E+02    7.61269000E-02 
S    1    1.000000
   4.44553000E+01    2.60801000E-01 
S    1    1.000000
   1.30290000E+01    6.16462000E-01 
S    1    1.000000
   1.82773000E+00    2.21006000E-01 
SP   3    1.000000
   2.09642000E+01    1.14660000E-01   4.02487000E-02 
   4.80331000E+00    9.19999000E-01   2.37594000E-01 
   1.45933000E+00   -3.03068000E-03   8.15854000E-01 
SP   1    1.000000
   4.83456000E-01    1.00000000E+00   1.00000000E+00 
SP   1    1.000000
   1.45585000E-01    1.00000000E+00   1.00000000E+00 
SP   1    1.000000
   4.38000000E-02    1.00000000E+00   1.00000000E+00 
SP   1    1.000000
   1.31927711E-02    1.00000000E+00   1.00000000E+00 
D    1    1.000000
   6.26000000E-01    1.00000000E+00 

12    0
S    3    1.000000
   3.38650000E+01    2.54938000E-02 
   5.09479000E+00    1.90373000E-01 
   1.15879000E+00    8.52161000E-01 
S    1    1.000000
   3.25840000E-01    1.00000000E+00 
S    1    1.000000
   1.02741000E-01    1.00000000E+00 
S    1    1.000000
   3.60000000E-02    1.00000000E+00 
P    1    1.000000
   7.50000000E-01    1.00000000E+00 

[MO]
Sym=X
Ene= -0.007845
Spin=Alpha
Occup=1
     1    1.990936252351e-04
     2    3.206193439958e-04
     3   -2.295558255776e-04
     4   -7.827871950222e-06
     5   -2.240240581150e-04
     6    2.162592203728e-10
     7    2.129050581440e-16
     8    4.526998321634e-04
     9    3.504653604697e-03
    10    1.748241128583e-02
    11    6.002363492402e-02
    12    1.417878467698e-01
    13    5.167762566818e-02
    14    1.898212935979e-01
    15    4.657421767749e-06
    16    9.240573896984e-10
    17    1.107998215011e-15
    18    1.172114505148e-03
    19   -4.283802836124e-04
    20    3.037638355089e-09
    21   -3.072388067671e-15
    22    6.070903955162e-05
    23    6.318580832561e-05
    24   -9.848610721542e-10
    25    6.126178303805e-15
    26    1.610826692320e-04
    27    2.407546968878e-05
    28    1.152843146990e-09
    29   -1.941310381764e-14
    30   -2.093871288839e-05
    31    3.459967687659e-05
    32   -1.004697912235e-09
    33   -1.106936817801e-14
    34   -8.567789982083e-05
    35   -7.058364895587e-16
    36   -1.019674831905e-15
    37   -1.922950364572e-04
    38   -1.649732119477e-09
    39    4.527159402066e-04
    40    3.504778309223e-03
    41    1.748303335019e-02
    42    6.002577075494e-02
    43    1.417928919270e-01
    44    5.167946866679e-02
    45    1.898280498183e-01
    46    2.329199687213e-06
    47    4.035944764408e-06
    48    7.686730344962e-16
    49    1.172132976276e-03
    50   -2.141918921768e-04
    51   -3.709854613354e-04
    52    7.665661401611e-16
    53    6.072962380221e-05
    54    3.158936247916e-05
    55    5.471247510897e-05
    56   -2.788698911025e-15
    57    1.610587483251e-04
    58    1.203911763478e-05
    59    2.085456263594e-05
    60    1.046576244625e-14
    61   -2.094039758673e-05
    62    1.730261101229e-05
    63    2.996704969833e-05
    64    1.805989057521e-14
    65   -8.568002627927e-05
    66    9.835082728995e-16
    67   -6.748631661983e-16
    68    9.614855534975e-05
    69   -1.665310822274e-04
    70    1.990990450109e-04
    71    3.206253522599e-04
    72   -2.295545119623e-04
    73   -7.830117032717e-06
    74   -1.120142710654e-04
    75   -1.940140054073e-04
    76   -1.199517366877e-16
    77    4.527076401635e-04
    78    3.504714052310e-03
    79    1.748271281705e-02
    80    6.002467021735e-02
    81    1.417902922900e-01
    82    5.167851904662e-02
    83    1.898245685167e-01
    84   -2.327800710203e-06
    85    4.035380308758e-06
    86    2.028962296330e-16
    87    1.172123472494e-03
    88    2.141949847804e-04
    89   -3.709846452517e-04
    90   -2.326299384967e-16
    91    6.071901166991e-05
    92   -3.159252276484e-05
    93    5.471591451395e-05
    94   -1.292517516295e-15
    95    1.610707443325e-04
    96   -1.203699858815e-05
    97    2.085325949733e-05
    98   -1.090363671995e-15
    99   -2.093956413291e-05
   100   -1.730250924713e-05
   101    2.996485657650e-05
   102   -2.688767072153e-14
   103   -8.567893532553e-05
   104    4.165806088518e-16
   105    6.957993177232e-16
   106    9.615017594306e-05
   107    1.665305340133e-04
   108    1.990962590769e-04
   109    3.206222818254e-04
   110   -2.295552596820e-04
   111   -7.829079665393e-06
   112    1.120134039917e-04
   113   -1.940120624778e-04
   114   -5.592945188524e-16
   115    4.526998244502e-04
   116    3.504653544986e-03
   117    1.748241098796e-02
   118    6.002363390137e-02
   119    1.417878443537e-01
   120    5.167762478547e-02
   121    1.898212903643e-01
   122   -4.657421718113e-06
   123   -9.329961711862e-10
   124   -6.800376206230e-16
   125    1.172114492421e-03
   126    4.283802816007e-04
   127   -3.120306290853e-09
   128    1.540741676012e-15
   129    6.070903238326e-05
   130   -6.318580948501e-05
   131    1.040019630730e-09
   132    4.686504998005e-16
   133    1.610826840318e-04
   134   -2.407546944664e-05
   135   -1.211353649771e-09
   136   -1.772783652546e-16
   137   -2.093871220972e-05
   138   -3.459967626210e-05
   139    1.010980256895e-09
   140    3.487877502112e-14
   141   -8.567789853439e-05
   142    4.696581010669e-16
   143    1.622487130102e-16
   144   -1.922950349270e-04
   145   -1.697030026426e-09
   146    1.990936223160e-04
   147    3.206193406800e-04
   148   -2.295558249069e-04
   149   -7.827871721645e-06
   150    2.240240553971e-04
   151   -2.235663938530e-10
   152    1.605225979996e-16
   153    4.527160011736e-04
   154    3.504778781204e-03
   155    1.748303570465e-02
   156    6.002577883846e-02
   157    1.417929110245e-01
   158    5.167947564413e-02
   159    1.898280753780e-01
   160   -2.329195325943e-06
   161   -4.035947728270e-06
   162   -1.742143567997e-15
   163    1.172133076505e-03
   164    2.141919425294e-04
   165    3.709854511507e-04
   166    1.696100182579e-15
   167    6.072968893927e-05
   168   -3.158938373816e-05
   169   -5.471244687862e-05
   170   -1.642316309058e-15
   171    1.610586764320e-04
   172   -1.203909220621e-05
   173   -2.085459234281e-05
   174   -6.397233675131e-15
   175   -2.094040167705e-05
   176   -1.730261755382e-05
   177   -2.996705384366e-05
   178   -2.589198213631e-14
   179   -8.568003654107e-05
   180    5.089279390353e-16
   181   -4.253607894384e-16
   182    9.614858566499e-05
   183   -1.665310790176e-04
   184    1.990990679378e-04
   185    3.206253798829e-04
   186   -2.295545198734e-04
   187   -7.830131299543e-06
   188    1.120142856220e-04
   189    1.940140220104e-04
   190    1.009988923063e-15
   191    4.527077087591e-04
   192    3.504714583349e-03
   193    1.748271546614e-02
   194    6.002467931240e-02
   195    1.417903137773e-01
   196    5.167852689706e-02
   197    1.898245972749e-01
   198    2.327797741082e-06
   199   -4.035382521990e-06
   200    8.724909801180e-16
   201    1.172123585200e-03
   202   -2.141950234611e-04
   203    3.709846443108e-04
   204    1.035083937255e-16
   205    6.071908734802e-05
   206    3.159253379403e-05
   207   -5.471588835357e-05
   208   -3.571443782166e-15
   209    1.610706580675e-04
   210    1.203698723532e-05
   211   -2.085328309556e-05
   212    1.696871975260e-14
   213   -2.093956886971e-05
   214    1.730251550669e-05
   215   -2.996486212900e-05
   216    9.635955699040e-15
   217   -8.567894690109e-05
   218   -8.311152996070e-16
   219   -2.230508277975e-16
   220    9.615019978229e-05
   221    1.665305364242e-04
   222    1.990962848598e-04
   223    3.206223132129e-04
   224   -2.295552681619e-04
   225   -7.829096168391e-06
   226   -1.120134188039e-04
   227    1.940120821268e-04
   228   -4.216222983950e-16
Sym=X
Ene= -0.071670
Spin=Alpha
Occup=1
     1   -2.794810451447e-10
     2    5.164090779537e-10
     3    2.881942113042e-09
     4    1.358048488405e-09
     5    4.122497167800e-10
     6   -6.246146465399e-05
     7    9.227278276791e-16
     8   -3.601545899331e-11
     9   -2.778275513481e-10
    10   -1.392012304358e-09
    11   -4.748826530706e-09
    12   -1.143968416073e-08
    13   -4.192298851766e-09
    14   -1.418632251423e-08
    15    7.793533083257e-10
    16   -7.562596368286e-05
    17    6.093032531280e-17
    18   -2.980581800373e-09
    19    1.304080832215e-09
    20   -7.082496766540e-04
    21   -2.710481777918e-16
    22    1.299246375290e-08
    23   -8.484865553606e-09
    24    4.710426453857e-04
    25    2.144984657155e-16
    26    2.880530182257e-09
    27   -1.984925979317e-09
    28   -4.811188329194e-04
    29    1.807367305358e-14
    30    2.170323787678e-10
    31   -2.511478238770e-10
    32    5.516399023897e-05
    33   -9.840092152272e-14
    34    1.653644561422e-10
    35   -8.772426292049e-16
    36    4.781619579614e-16
    37    1.369441553928e-09
    38    4.049092442436e-04
    39   -5.545421437766e-04
    40   -4.293006977650e-03
    41   -2.141559462520e-02
    42   -7.352577387164e-02
    43   -1.737062405206e-01
    44   -6.346524527125e-02
    45   -2.324849919193e-01
    46    3.101086346093e-05
    47   -2.191283650899e-05
    48    5.751822102475e-16
    49   -9.119732772450e-04
    50    3.813503273141e-04
    51   -4.772519186071e-05
    52   -1.490773843710e-15
    53   -6.015299603917e-04
    54   -1.377442105666e-04
    55    2.324584661491e-04
    56    2.862819200377e-15
    57    6.447537874844e-04
    58    1.479293784402e-04
    59   -2.248933798893e-04
    60   -1.581529261604e-14
    61    3.711480086351e-05
    62   -5.616351348450e-05
    63   -4.211455592022e-05
    64    9.965356607937e-14
    65    9.334069345410e-05
    66    5.570262381918e-16
    67   -3.566738861643e-16
    68   -2.317612123776e-04
    69   -3.483388396858e-06
    70   -2.083990135646e-04
    71   -2.531401780026e-04
    72    7.140876141354e-05
    73    1.336277439061e-04
    74    1.256872387456e-04
    75    1.552357900814e-04
    76    3.852873541315e-16
    77   -5.545321680806e-04
    78   -4.292929748442e-03
    79   -2.141520938078e-02
    80   -7.352445115661e-02
    81   -1.737031160247e-01
    82   -6.346410384702e-02
    83   -2.324808078616e-01
    84   -3.101231176352e-05
    85   -2.191177008604e-05
    86    5.649371684099e-16
    87   -9.119627157852e-04
    88   -3.813557377005e-04
    89   -4.772848125926e-05
    90   -7.958847297515e-16
    91   -6.014931237921e-04
    92    1.377575334052e-04
    93    2.324438178917e-04
    94    3.422850548481e-16
    95    6.447481396997e-04
    96   -1.479322035836e-04
    97   -2.248970126707e-04
    98    1.782971347170e-14
    99    3.711457037310e-05
   100    5.616360958495e-05
   101   -4.211373837854e-05
   102   -8.130663915561e-14
   103    9.333932975894e-05
   104    6.215782554793e-16
   105   -4.052026358982e-16
   106   -2.317647008463e-04
   107    3.484612883959e-06
   108   -2.083957946757e-04
   109   -2.531345420294e-04
   110    7.141318976126e-05
   111    1.336280187632e-04
   112   -1.256863473831e-04
   113    1.552331225319e-04
   114    4.787301083183e-16
   115   -4.122854609715e-11
   116   -3.201771996625e-10
   117   -1.591035191305e-09
   118   -5.493158813321e-09
   119   -1.275381035365e-08
   120   -4.632024816301e-09
   121   -1.820596278276e-08
   122    7.833397194436e-10
   123   -7.562596312137e-05
   124    4.073313104074e-16
   125    2.815713415760e-09
   126    1.256501369735e-09
   127   -7.082496747561e-04
   128   -4.068673198902e-16
   129   -1.303109264636e-08
   130   -8.490634686280e-09
   131    4.710426452002e-04
   132    3.473001305641e-15
   133   -2.852118654196e-09
   134   -1.970881712833e-09
   135   -4.811188462452e-04
   136   -2.246025879678e-14
   137   -2.110085845375e-10
   138   -2.414398880339e-10
   139    5.516398998178e-05
   140    5.962384332845e-14
   141   -1.521343317300e-10
   142    4.549397384278e-16
   143   -3.264682637689e-16
   144   -1.347943667284e-09
   145   -4.049092432225e-04
   146    2.480472006825e-10
   147   -5.628355857149e-10
   148   -2.856869716678e-09
   149   -1.351706180454e-09
   150    3.798711498943e-10
   151   -6.246146453466e-05
   152    1.045019365985e-15
   153    5.545421005334e-04
   154    4.293006642866e-03
   155    2.141559295518e-02
   156    7.352576813787e-02
   157    1.737062269763e-01
   158    6.346524033714e-02
   159    2.324849737877e-01
   160    3.101086678310e-05
   161   -2.191283938132e-05
   162   -1.496355737140e-15
   163    9.119731513221e-04
   164    3.813503143946e-04
   165   -4.772524332200e-05
   166    4.378939914807e-15
   167    6.015299657446e-04
   168   -1.377442088367e-04
   169    2.324584797180e-04
   170   -7.171231799469e-15
   171   -6.447538232465e-04
   172    1.479293957056e-04
   173   -2.248933899801e-04
   174    2.853010169585e-14
   175   -3.711479960743e-05
   176   -5.616351608138e-05
   177   -4.211455277933e-05
   178   -6.157360576255e-14
   179   -9.334068472307e-05
   180   -6.565913752877e-16
   181   -2.473882239578e-17
   182    2.317612077772e-04
   183    3.483412125019e-06
   184    2.083989935542e-04
   185    2.531401440374e-04
   186   -7.140873364963e-05
   187   -1.336277440589e-04
   188    1.256872277909e-04
   189    1.552357690049e-04
   190    5.802358058281e-16
   191    5.545321299123e-04
   192    4.292929452957e-03
   193    2.141520790678e-02
   194    7.352444609588e-02
   195    1.737031040702e-01
   196    6.346409949371e-02
   197    2.324807918589e-01
   198   -3.101231423888e-05
   199   -2.191177328456e-05
   200    4.538430714374e-16
   201    9.119625956512e-04
   202   -3.813557228293e-04
   203   -4.772853222565e-05
   204   -5.400249456416e-16
   205    6.014931357272e-04
   206    1.377575289664e-04
   207    2.324438330311e-04
   208    6.675322783071e-15
   209   -6.447481887469e-04
   210   -1.479321934103e-04
   211   -2.248970131460e-04
   212   -2.517782053070e-14
   213   -3.711457030704e-05
   214    5.616361289676e-05
   215   -4.211373534938e-05
   216    7.826159036298e-14
   217   -9.333932169573e-05
   218   -1.204231495925e-15
   219    7.240244441030e-16
   220    2.317646952562e-04
   221   -3.484636280445e-06
   222    2.083957763449e-04
   223    2.531345100064e-04
   224   -7.141316205031e-05
   225   -1.336280222823e-04
   226   -1.256863369343e-04
   227    1.552331026462e-04
   228    8.056626888443e-16
Sym=X
Ene= -0.071673
Spin=Alpha
Occup=1
     1   -2.406400511497e-04
     2   -2.923049843940e-04
     3    8.244952464442e-05
     4    1.542981489705e-04
     5    2.278024749735e-04
     6    3.246394375768e-10
     7   -3.465484683572e-16
     8   -6.403360786537e-04
     9   -4.957183662010e-03
    10   -2.472882906485e-02
    11   -8.490104184927e-02
    12   -2.005805580872e-01
    13   -7.328403568516e-02
    14   -2.684530489277e-01
    15   -4.010419890426e-06
    16    3.484569015967e-10
    17   -1.277688825769e-15
    18   -1.053058996371e-03
    19    1.724458366123e-04
    20    3.711005511255e-09
    21    2.225066659812e-15
    22   -6.946240926739e-04
    23    1.529533915827e-04
    24   -2.463357559459e-09
    25   -1.003988431937e-14
    26    7.444979536354e-04
    27   -1.394827654340e-04
    28    2.548545732392e-09
    29    7.762978683261e-14
    30    4.285636902483e-05
    31   -7.454065391428e-05
    32   -2.943327614421e-10
    33   -9.960564730465e-13
    34    1.077811628802e-04
    35    9.216810928146e-16
    36   -1.366663968592e-16
    37    1.303219175931e-04
    38   -2.107545486275e-09
    39   -3.201475217773e-04
    40   -2.478432988388e-03
    41   -1.236362218126e-02
    42   -4.244780039749e-02
    43   -1.002838529190e-01
    44   -3.663967004772e-02
    45   -1.342179178879e-01
    46   -5.772016545093e-05
    47    3.101416374060e-05
    48   -1.243443787985e-15
    49   -5.265110998517e-04
    50   -4.880767201025e-04
    51    3.813545030980e-04
    52   -2.486770837300e-15
    53   -3.472212390816e-04
    54    3.914965343154e-04
    55   -1.377803261626e-04
    56    1.117492154517e-14
    57    3.722406317321e-04
    58   -3.957140806093e-04
    59    1.479282609957e-04
    60   -8.618125890699e-14
    61    2.142796041179e-05
    62    2.273846704278e-05
    63   -5.616288995859e-05
    64    1.012726038239e-12
    65    5.388798186009e-05
    66    9.945217372357e-17
    67   -1.090279110758e-15
    68    2.711008537651e-04
    69    2.317650707294e-04
    70   -1.203137196843e-04
    71   -1.461403636286e-04
    72    4.123733780581e-05
    73    7.715132692905e-05
    74    1.010179734824e-05
    75    1.256835830156e-04
    76   -7.834880140816e-17
    77    3.201532832206e-04
    78    2.478477590796e-03
    79    1.236384467961e-02
    80    4.244856429633e-02
    81    1.002856576478e-01
    82    3.664032947894e-02
    83    1.342203332832e-01
    84   -5.771981834000e-05
    85   -3.101393631555e-05
    86   -1.983045865538e-15
    87    5.265206013197e-04
    88   -4.880727591544e-04
    89   -3.813539983354e-04
    90    2.230933832122e-15
    91    3.472274851018e-04
    92    3.914951053482e-04
    93    1.377779074906e-04
    94   -1.396744276544e-14
    95   -3.722474498641e-04
    96   -3.957124992996e-04
    97   -1.479259322376e-04
    98    8.736963760022e-14
    99   -2.142835139149e-05
   100    2.273788525842e-05
   101    5.616333363643e-05
   102   -1.026421488468e-12
   103   -5.388894992833e-05
   104   -7.718815427887e-16
   105   -6.738932021004e-16
   106   -2.710984427171e-04
   107    2.317650304763e-04
   108    1.203158854053e-04
   109    1.461429916480e-04
   110   -4.123806588007e-05
   111   -7.715269548414e-05
   112    1.010310241012e-05
   113   -1.256851962468e-04
   114    3.628198088096e-16
   115    6.403360814974e-04
   116    4.957183684015e-03
   117    2.472882917463e-02
   118    8.490104222619e-02
   119    2.005805589776e-01
   120    7.328403600904e-02
   121    2.684530501194e-01
   122   -4.010419584005e-06
   123    3.437187487942e-10
   124    3.217642141383e-16
   125    1.053059007479e-03
   126    1.724458420479e-04
   127    3.695327470638e-09
   128   -3.020023387554e-15
   129    6.946240901285e-04
   130    1.529533894342e-04
   131   -2.458242054477e-09
   132    9.401998533583e-15
   133   -7.444979474423e-04
   134   -1.394827645421e-04
   135    2.540060905343e-09
   136   -7.685193334158e-14
   137   -4.285636893980e-05
   138   -7.454065397055e-05
   139   -2.886579351849e-10
   140    1.012840953155e-12
   141   -1.077811635723e-04
   142    2.185348034379e-16
   143   -4.011680856025e-16
   144   -1.303219199863e-04
   145    2.099005938368e-09
   146    2.406400526717e-04
   147    2.923049872935e-04
   148   -8.244952758560e-05
   149   -1.542981483023e-04
   150    2.278024769909e-04
   151    3.235073665987e-10
   152    5.638875369448e-16
   153    3.201475496782e-04
   154    2.478433204392e-03
   155    1.236362325875e-02
   156    4.244780409698e-02
   157    1.002838616578e-01
   158    3.663967323866e-02
   159    1.342179295898e-01
   160   -5.772016863700e-05
   161    3.101416186029e-05
   162   -1.423871595184e-15
   163    5.265111396335e-04
   164   -4.880767243233e-04
   165    3.813545088006e-04
   166    2.031028222177e-15
   167    3.472212688092e-04
   168    3.914965420057e-04
   169   -1.377803173687e-04
   170   -5.659305910731e-15
   171   -3.722406696876e-04
   172   -3.957140859132e-04
   173    1.479282532135e-04
   174    6.814267744853e-14
   175   -2.142796361060e-05
   176    2.273846624188e-05
   177   -5.616289675198e-05
   178   -9.994200238107e-13
   179   -5.388798583935e-05
   180    1.115275549625e-16
   181   -4.027903074888e-16
   182   -2.711008560825e-04
   183   -2.317650736960e-04
   184    1.203137296121e-04
   185    1.461403757677e-04
   186   -4.123733885463e-05
   187   -7.715133154709e-05
   188    1.010180115673e-05
   189    1.256835905301e-04
   190   -4.546735375877e-16
   191   -3.201532976653e-04
   192   -2.478477702614e-03
   193   -1.236384523739e-02
   194   -4.244856621149e-02
   195   -1.002856621717e-01
   196   -3.664033113295e-02
   197   -1.342203393420e-01
   198   -5.771982201911e-05
   199   -3.101393526103e-05
   200    2.006493624053e-16
   201   -5.265206100107e-04
   202   -4.880727708998e-04
   203   -3.813539968206e-04
   204   -1.667335206407e-15
   205   -3.472275100578e-04
   206    3.914951139330e-04
   207    1.377778990464e-04
   208    9.473376813960e-15
   209    3.722474872882e-04
   210   -3.957125046529e-04
   211   -1.479259264684e-04
   212   -7.109792903361e-14
   213    2.142835372826e-05
   214    2.273788539798e-05
   215    5.616333961591e-05
   216    9.965748391685e-13
   217    5.388895152704e-05
   218    1.221630063177e-16
   219    7.506335819128e-16
   220    2.710984486849e-04
   221   -2.317650303213e-04
   222   -1.203158896873e-04
   223   -1.461429951208e-04
   224    4.123806158183e-05
   225    7.715269930467e-05
   226    1.010310301042e-05
   227   -1.256851986266e-04
   228    4.149043336594e-16
Sym=X
Ene= -0.327006
Spin=Alpha
Occup=1
     1   -3.391521447628e-10
     2   -1.127055967432e-09
     3    2.052329088662e-09
     4   -3.261760160035e-10
     5    8.030617625365e-10
     6    2.942378403078e-05
     7    8.675535842203e-16
     8    3.948658943999e-11
     9    3.059794067257e-10
    10    1.525347640019e-09
    11    5.248190618828e-09
    12    1.237570022971e-08
    13    5.419300318813e-09
    14    1.696657094276e-08
    15    4.497548778217e-10
    16    1.198917793056e-04
    17    1.651278071333e-16
    18   -4.831394859363e-09
    19    3.553295141252e-09
    20    4.141522351960e-04
    21   -1.349987897172e-15
    22    4.014834571548e-09
    23   -2.413420557773e-09
    24   -1.364688063720e-04
    25   -8.849916625682e-16
    26   -5.971628240041e-09
    27    6.321530369441e-10
    28    1.580772454358e-04
    29    6.371541945434e-15
    30   -1.698848859911e-10
    31    5.354426047016e-10
    32   -1.362948311718e-04
    33   -1.305847019546e-13
    34    1.894517906533e-10
    35   -3.452334188391e-16
    36    1.087270484450e-15
    37    1.578396991529e-09
    38   -2.238848040700e-04
    39    5.547102526757e-04
    40    4.294430628046e-03
    41    2.142193165545e-02
    42    7.355126906474e-02
    43    1.737393870754e-01
    44    6.347052528844e-02
    45    2.326613273974e-01
    46    9.105412314709e-05
    47    3.781743703409e-05
    48    1.470710467625e-15
    49    6.373375609974e-04
    50    2.080523515590e-04
    51   -5.379878846774e-05
    52   -8.197752753748e-16
    53    7.075119341829e-04
    54   -2.110516856448e-04
    55   -2.290822258263e-04
    56   -2.698774801312e-15
    57   -7.827471296712e-04
    58    1.372235974641e-04
    59    7.959970164820e-05
    60   -1.194832408601e-14
    61   -5.385398835364e-05