[Molden Format]
[Atoms] (Angs)
  H      1    1      2.47503475      0.00000000     -0.00000000
  C      2    6      1.39359294      0.00000000     -0.00000000
  C      3    6      0.69679647      1.20688689      0.00000000
  H      4    1      1.23751738      2.14344297      0.00000000
  C      5    6     -0.69679647      1.20688689      0.00000000
  H      6    1     -1.23751738      2.14344297      0.00000000
  C      7    6     -1.39359294     -0.00000000      0.00000000
  H      8    1     -2.47503475     -0.00000000      0.00000000
  C      9    6     -0.69679647     -1.20688689     -0.00000000
  H     10    1     -1.23751738     -2.14344297     -0.00000000
  C     11    6      0.69679647     -1.20688689     -0.00000000
  H     12    1      1.23751738     -2.14344297     -0.00000000
[GTO]
1    0
S    3    1.000000
   3.38650000E+01    2.54938000E-02 
   5.09479000E+00    1.90373000E-01 
   1.15879000E+00    8.52161000E-01 
S    1    1.000000
   3.25840000E-01    1.00000000E+00 
S    1    1.000000
   1.02741000E-01    1.00000000E+00 
S    1    1.000000
   3.60000000E-02    1.00000000E+00 
P    1    1.000000
   7.50000000E-01    1.00000000E+00 

2    0
S    1    1.000000
   4.56324000E+03    1.96665000E-03 
S    1    1.000000
   6.82024000E+02    1.52306000E-02 
S    1    1.000000
   1.54973000E+02    7.61269000E-02 
S    1    1.000000
   4.44553000E+01    2.60801000E-01 
S    1    1.000000
   1.30290000E+01    6.16462000E-01 
S    1    1.000000
   1.82773000E+00    2.21006000E-01 
SP   3    1.000000
   2.09642000E+01    1.14660000E-01   4.02487000E-02 
   4.80331000E+00    9.19999000E-01   2.37594000E-01 
   1.45933000E+00   -3.03068000E-03   8.15854000E-01 
SP   1    1.000000
   4.83456000E-01    1.00000000E+00   1.00000000E+00 
SP   1    1.000000
   1.45585000E-01    1.00000000E+00   1.00000000E+00 
SP   1    1.000000
   4.38000000E-02    1.00000000E+00   1.00000000E+00 
SP   1    1.000000
   1.31927711E-02    1.00000000E+00   1.00000000E+00 
D    1    1.000000
   6.26000000E-01    1.00000000E+00 

3    0
S    1    1.000000
   4.56324000E+03    1.96665000E-03 
S    1    1.000000
   6.82024000E+02    1.52306000E-02 
S    1    1.000000
   1.54973000E+02    7.61269000E-02 
S    1    1.000000
   4.44553000E+01    2.60801000E-01 
S    1    1.000000
   1.30290000E+01    6.16462000E-01 
S    1    1.000000
   1.82773000E+00    2.21006000E-01 
SP   3    1.000000
   2.09642000E+01    1.14660000E-01   4.02487000E-02 
   4.80331000E+00    9.19999000E-01   2.37594000E-01 
   1.45933000E+00   -3.03068000E-03   8.15854000E-01 
SP   1    1.000000
   4.83456000E-01    1.00000000E+00   1.00000000E+00 
SP   1    1.000000
   1.45585000E-01    1.00000000E+00   1.00000000E+00 
SP   1    1.000000
   4.38000000E-02    1.00000000E+00   1.00000000E+00 
SP   1    1.000000
   1.31927711E-02    1.00000000E+00   1.00000000E+00 
D    1    1.000000
   6.26000000E-01    1.00000000E+00 

4    0
S    3    1.000000
   3.38650000E+01    2.54938000E-02 
   5.09479000E+00    1.90373000E-01 
   1.15879000E+00    8.52161000E-01 
S    1    1.000000
   3.25840000E-01    1.00000000E+00 
S    1    1.000000
   1.02741000E-01    1.00000000E+00 
S    1    1.000000
   3.60000000E-02    1.00000000E+00 
P    1    1.000000
   7.50000000E-01    1.00000000E+00 

5    0
S    1    1.000000
   4.56324000E+03    1.96665000E-03 
S    1    1.000000
   6.82024000E+02    1.52306000E-02 
S    1    1.000000
   1.54973000E+02    7.61269000E-02 
S    1    1.000000
   4.44553000E+01    2.60801000E-01 
S    1    1.000000
   1.30290000E+01    6.16462000E-01 
S    1    1.000000
   1.82773000E+00    2.21006000E-01 
SP   3    1.000000
   2.09642000E+01    1.14660000E-01   4.02487000E-02 
   4.80331000E+00    9.19999000E-01   2.37594000E-01 
   1.45933000E+00   -3.03068000E-03   8.15854000E-01 
SP   1    1.000000
   4.83456000E-01    1.00000000E+00   1.00000000E+00 
SP   1    1.000000
   1.45585000E-01    1.00000000E+00   1.00000000E+00 
SP   1    1.000000
   4.38000000E-02    1.00000000E+00   1.00000000E+00 
SP   1    1.000000
   1.31927711E-02    1.00000000E+00   1.00000000E+00 
D    1    1.000000
   6.26000000E-01    1.00000000E+00 

6    0
S    3    1.000000
   3.38650000E+01    2.54938000E-02 
   5.09479000E+00    1.90373000E-01 
   1.15879000E+00    8.52161000E-01 
S    1    1.000000
   3.25840000E-01    1.00000000E+00 
S    1    1.000000
   1.02741000E-01    1.00000000E+00 
S    1    1.000000
   3.60000000E-02    1.00000000E+00 
P    1    1.000000
   7.50000000E-01    1.00000000E+00 

7    0
S    1    1.000000
   4.56324000E+03    1.96665000E-03 
S    1    1.000000
   6.82024000E+02    1.52306000E-02 
S    1    1.000000
   1.54973000E+02    7.61269000E-02 
S    1    1.000000
   4.44553000E+01    2.60801000E-01 
S    1    1.000000
   1.30290000E+01    6.16462000E-01 
S    1    1.000000
   1.82773000E+00    2.21006000E-01 
SP   3    1.000000
   2.09642000E+01    1.14660000E-01   4.02487000E-02 
   4.80331000E+00    9.19999000E-01   2.37594000E-01 
   1.45933000E+00   -3.03068000E-03   8.15854000E-01 
SP   1    1.000000
   4.83456000E-01    1.00000000E+00   1.00000000E+00 
SP   1    1.000000
   1.45585000E-01    1.00000000E+00   1.00000000E+00 
SP   1    1.000000
   4.38000000E-02    1.00000000E+00   1.00000000E+00 
SP   1    1.000000
   1.31927711E-02    1.00000000E+00   1.00000000E+00 
D    1    1.000000
   6.26000000E-01    1.00000000E+00 

8    0
S    3    1.000000
   3.38650000E+01    2.54938000E-02 
   5.09479000E+00    1.90373000E-01 
   1.15879000E+00    8.52161000E-01 
S    1    1.000000
   3.25840000E-01    1.00000000E+00 
S    1    1.000000
   1.02741000E-01    1.00000000E+00 
S    1    1.000000
   3.60000000E-02    1.00000000E+00 
P    1    1.000000
   7.50000000E-01    1.00000000E+00 

9    0
S    1    1.000000
   4.56324000E+03    1.96665000E-03 
S    1    1.000000
   6.82024000E+02    1.52306000E-02 
S    1    1.000000
   1.54973000E+02    7.61269000E-02 
S    1    1.000000
   4.44553000E+01    2.60801000E-01 
S    1    1.000000
   1.30290000E+01    6.16462000E-01 
S    1    1.000000
   1.82773000E+00    2.21006000E-01 
SP   3    1.000000
   2.09642000E+01    1.14660000E-01   4.02487000E-02 
   4.80331000E+00    9.19999000E-01   2.37594000E-01 
   1.45933000E+00   -3.03068000E-03   8.15854000E-01 
SP   1    1.000000
   4.83456000E-01    1.00000000E+00   1.00000000E+00 
SP   1    1.000000
   1.45585000E-01    1.00000000E+00   1.00000000E+00 
SP   1    1.000000
   4.38000000E-02    1.00000000E+00   1.00000000E+00 
SP   1    1.000000
   1.31927711E-02    1.00000000E+00   1.00000000E+00 
D    1    1.000000
   6.26000000E-01    1.00000000E+00 

10    0
S    3    1.000000
   3.38650000E+01    2.54938000E-02 
   5.09479000E+00    1.90373000E-01 
   1.15879000E+00    8.52161000E-01 
S    1    1.000000
   3.25840000E-01    1.00000000E+00 
S    1    1.000000
   1.02741000E-01    1.00000000E+00 
S    1    1.000000
   3.60000000E-02    1.00000000E+00 
P    1    1.000000
   7.50000000E-01    1.00000000E+00 

11    0
S    1    1.000000
   4.56324000E+03    1.96665000E-03 
S    1    1.000000
   6.82024000E+02    1.52306000E-02 
S    1    1.000000
   1.54973000E+02    7.61269000E-02 
S    1    1.000000
   4.44553000E+01    2.60801000E-01 
S    1    1.000000
   1.30290000E+01    6.16462000E-01 
S    1    1.000000
   1.82773000E+00    2.21006000E-01 
SP   3    1.000000
   2.09642000E+01    1.14660000E-01   4.02487000E-02 
   4.80331000E+00    9.19999000E-01   2.37594000E-01 
   1.45933000E+00   -3.03068000E-03   8.15854000E-01 
SP   1    1.000000
   4.83456000E-01    1.00000000E+00   1.00000000E+00 
SP   1    1.000000
   1.45585000E-01    1.00000000E+00   1.00000000E+00 
SP   1    1.000000
   4.38000000E-02    1.00000000E+00   1.00000000E+00 
SP   1    1.000000
   1.31927711E-02    1.00000000E+00   1.00000000E+00 
D    1    1.000000
   6.26000000E-01    1.00000000E+00 

12    0
S    3    1.000000
   3.38650000E+01    2.54938000E-02 
   5.09479000E+00    1.90373000E-01 
   1.15879000E+00    8.52161000E-01 
S    1    1.000000
   3.25840000E-01    1.00000000E+00 
S    1    1.000000
   1.02741000E-01    1.00000000E+00 
S    1    1.000000
   3.60000000E-02    1.00000000E+00 
P    1    1.000000
   7.50000000E-01    1.00000000E+00 

[MO]
Sym=X
Ene= -0.002448
Spin=Alpha
Occup=1
     1   -2.796552605290e-10
     2    5.161974095653e-10
     3    2.882001888315e-09
     4    1.358160106353e-09
     5    4.124146280573e-10
     6   -6.246146465398e-05
     7    9.227278274282e-16
     8   -3.647908333447e-11
     9   -2.814167031428e-10
    10   -1.409916796339e-09
    11   -4.810297711091e-09
    12   -1.158491116612e-08
    13   -4.245358817520e-09
    14   -1.438069151817e-08
    15    7.793504107480e-10
    16   -7.562596368290e-05
    17    6.093032438786e-17
    18   -2.981344303286e-09
    19    1.304205674351e-09
    20   -7.082496766539e-04
    21   -2.710481761803e-16
    22    1.299196099343e-08
    23   -8.484754833606e-09
    24    4.710426453855e-04
    25    2.144984584459e-16
    26    2.881067036135e-09
    27   -1.985026629433e-09
    28   -4.811188329193e-04
    29    1.807367310981e-14
    30    2.170632437495e-10
    31   -2.512015715781e-10
    32    5.516399023897e-05
    33   -9.840092224395e-14
    34    1.654425021870e-10
    35   -8.772426285375e-16
    36    4.781619578624e-16
    37    1.369535910777e-09
    38    4.049092442435e-04
    39   -5.545421440084e-04
    40   -4.293006979444e-03
    41   -2.141559463415e-02
    42   -7.352577390237e-02
    43   -1.737062405932e-01
    44   -6.346524529778e-02
    45   -2.324849920165e-01
    46    3.101086341911e-05
    47   -2.191283648655e-05
    48    5.751822093471e-16
    49   -9.119732776264e-04
    50    3.813503269607e-04
    51   -4.772519158449e-05
    52   -1.490773845511e-15
    53   -6.015299606428e-04
    54   -1.377442102832e-04
    55    2.324584660493e-04
    56    2.862819208469e-15
    57    6.447537877537e-04
    58    1.479293781543e-04
    59   -2.248933797819e-04
    60   -1.581529267846e-14
    61    3.711480087901e-05
    62   -5.616351346824e-05
    63   -4.211455596085e-05
    64    9.965356681267e-14
    65    9.334069349312e-05
    66    5.570262382638e-16
    67   -3.566738869538e-16
    68   -2.317612121813e-04
    69   -3.483388229009e-06
    70   -2.083990136517e-04
    71   -2.531401781084e-04
    72    7.140876144327e-05
    73    1.336277439615e-04
    74    1.256872387529e-04
    75    1.552357901725e-04
    76    3.852873540747e-16
    77   -5.545321678488e-04
    78   -4.292929746648e-03
    79   -2.141520937183e-02
    80   -7.352445112587e-02
    81   -1.737031159521e-01
    82   -6.346410382049e-02
    83   -2.324808077644e-01
    84   -3.101231180532e-05
    85   -2.191177010852e-05
    86    5.649371669743e-16
    87   -9.119627154041e-04
    88   -3.813557380539e-04
    89   -4.772848153530e-05
    90   -7.958847281358e-16
    91   -6.014931235409e-04
    92    1.377575336886e-04
    93    2.324438179915e-04
    94    3.422850447347e-16
    95    6.447481394321e-04
    96   -1.479322038699e-04
    97   -2.248970127783e-04
    98    1.782971353498e-14
    99    3.711457035776e-05
   100    5.616360960167e-05
   101   -4.211373833798e-05
   102   -8.130663989883e-14
   103    9.333932971992e-05
   104    6.215782549204e-16
   105   -4.052026363861e-16
   106   -2.317647010425e-04
   107    3.484613051728e-06
   108   -2.083957945886e-04
   109   -2.531345419236e-04
   110    7.141318973144e-05
   111    1.336280187077e-04
   112   -1.256863473758e-04
   113    1.552331224409e-04
   114    4.787301085811e-16
   115   -4.076490953684e-11
   116   -3.165879035573e-10
   117   -1.573130199815e-09
   118   -5.431685728940e-09
   119   -1.260857879120e-08
   120   -4.578962997055e-09
   121   -1.801158877057e-08
   122    7.833368149667e-10
   123   -7.562596312139e-05
   124    4.073313106404e-16
   125    2.816475803494e-09
   126    1.256626234148e-09
   127   -7.082496747559e-04
   128   -4.068673220768e-16
   129   -1.303058929117e-08
   130   -8.490523731441e-09
   131    4.710426452001e-04
   132    3.473001312449e-15
   133   -2.852659350562e-09
   134   -1.970983274404e-09
   135   -4.811188462452e-04
   136   -2.246025885245e-14
   137   -2.110397647066e-10
   138   -2.414941093379e-10
   139    5.516398998184e-05
   140    5.962384406183e-14
   141   -1.522123568904e-10
   142    4.549397385861e-16
   143   -3.264682640594e-16
   144   -1.348038032049e-09
   145   -4.049092432224e-04
   146    2.482214580030e-10
   147   -5.626239347324e-10
   148   -2.856929356743e-09
   149   -1.351818251640e-09
   150    3.800361078829e-10
   151   -6.246146453465e-05
   152    1.045019366393e-15
   153    5.545421007652e-04
   154    4.293006644661e-03
   155    2.141559296414e-02
   156    7.352576816861e-02
   157    1.737062270489e-01
   158    6.346524036366e-02
   159    2.324849738849e-01
   160    3.101086674134e-05
   161   -2.191283935887e-05
   162   -1.496355738171e-15
   163    9.119731517039e-04
   164    3.813503140412e-04
   165   -4.772524304583e-05
   166    4.378939916278e-15
   167    6.015299659955e-04
   168   -1.377442085532e-04
   169    2.324584796180e-04
   170   -7.171231803567e-15
   171   -6.447538235159e-04
   172    1.479293954191e-04
   173   -2.248933898728e-04
   174    2.853010174521e-14
   175   -3.711479962296e-05
   176   -5.616351606474e-05
   177   -4.211455282003e-05
   178   -6.157360648621e-14
   179   -9.334068476214e-05
   180   -6.565913752069e-16
   181   -2.473882268742e-17
   182    2.317612075809e-04
   183    3.483411957205e-06
   184    2.083989936413e-04
   185    2.531401441431e-04
   186   -7.140873367941e-05
   187   -1.336277441145e-04
   188    1.256872277982e-04
   189    1.552357690959e-04
   190    5.802358054989e-16
   191    5.545321296805e-04
   192    4.292929451163e-03
   193    2.141520789783e-02
   194    7.352444606514e-02
   195    1.737031039976e-01
   196    6.346409946718e-02
   197    2.324807917618e-01
   198   -3.101231428071e-05
   199   -2.191177330700e-05
   200    4.538430715827e-16
   201    9.119625952701e-04
   202   -3.813557231826e-04
   203   -4.772853250170e-05
   204   -5.400249468488e-16
   205    6.014931354756e-04
   206    1.377575292497e-04
   207    2.324438331308e-04
   208    6.675322789930e-15
   209   -6.447481884755e-04
   210   -1.479321936970e-04
   211   -2.248970132523e-04
   212   -2.517782058219e-14
   213   -3.711457029137e-05
   214    5.616361291304e-05
   215   -4.211373530866e-05
   216    7.826159108459e-14
   217   -9.333932165673e-05
   218   -1.204231495836e-15
   219    7.240244446465e-16
   220    2.317646954524e-04
   221   -3.484636448217e-06
   222    2.083957762578e-04
   223    2.531345099006e-04
   224   -7.141316202034e-05
   225   -1.336280222260e-04
   226   -1.256863369270e-04
   227    1.552331025552e-04
   228    8.056626891447e-16
Sym=X
Ene= -0.003698
Spin=Alpha
Occup=1
     1   -5.428518737281e-05
     2    1.145168091586e-06
     3   -1.840132196098e-04
     4    5.631029601292e-05
     5   -2.325584307442e-06
     6    2.539779254494e-10
     7   -1.004336549990e-16
     8   -2.451490667292e-04
     9   -1.897906161243e-03
    10   -9.467259036910e-03
    11   -3.250629215005e-02
    12   -7.678317991629e-02
    13   -2.812210289216e-02
    14   -1.028546389978e-01
    15   -6.985189042930e-05
    16    1.021507421522e-09
    17   -1.365314452100e-15
    18    1.064706981286e-04
    19   -3.083093143802e-04
    20    3.608810676931e-09
    21    5.375291252941e-16
    22   -6.202742152068e-04
    23    3.195836748251e-04
    24   -1.196530317715e-09
    25   -2.713777169892e-15
    26    8.221112341102e-04
    27   -1.132804112148e-04
    28    1.438794357470e-09
    29    2.487780270859e-15
    30    3.749937094561e-05
    31   -1.011376914972e-04
    32   -1.183160729887e-09
    33    2.036011483628e-13
    34    1.644874337479e-05
    35   -7.165122655636e-16
    36   -5.790686091327e-16
    37   -1.356403755264e-04
    38   -1.942919042282e-09
    39    5.268410392415e-04
    40    4.078651761428e-03
    41    2.034563735115e-02
    42    6.985498874587e-02
    43    1.650098772439e-01
    44    6.020980847250e-02
    45    2.209400657299e-01
    46   -5.270463510187e-05
    47    7.556258092814e-05
    48    1.785360453866e-15
    49    9.934599900531e-04
    50   -3.637634436119e-04
    51   -5.369366855193e-05
    52   -3.067061002476e-15
    53    3.643647151882e-04
    54    3.055042586622e-05
    55   -1.370046165434e-04
    56    2.638263028371e-15
    57   -2.672286848507e-04
    58   -5.618773133193e-05
    59    1.226713425103e-04
    60   -3.346172878789e-17
    61   -3.744889875415e-05
    62    1.228670852738e-04
    63    2.313463967465e-05
    64   -2.265606369546e-13
    65   -8.473510017726e-05
    66    8.008005348873e-16
    67   -2.989016493829e-16
    68    1.868634107562e-04
    69   -1.208326599377e-05
    70    2.049344124830e-04
    71    2.857404345157e-04
    72   -1.129825396156e-04
    73   -3.514692862176e-05
    74   -1.171763824398e-04
    75   -1.620072720302e-04
    76   -2.211665383693e-16
    77    5.268313786097e-04
    78    4.078576971181e-03
    79    2.034526427447e-02
    80    6.985370780232e-02
    81    1.650068514594e-01
    82    6.020870317871e-02
    83    2.209360137572e-01
    84    5.270626544831e-05
    85    7.556192532791e-05
    86   -9.015236540728e-16
    87    9.934489405739e-04
    88    3.637670247452e-04
    89   -5.369273988599e-05
    90   -1.270894733103e-15
    91    3.643523705624e-04
    92   -3.055406900067e-05
    93   -1.370006124984e-04
    94    9.454086765191e-16
    95   -2.672148437608e-04
    96    5.619005381118e-05
    97    1.226697998695e-04
    98   -8.700835228764e-15
    99   -3.744794063186e-05
   100   -1.228669701497e-04
   101    2.313206292793e-05
   102    2.518582754731e-13
   103   -8.473383561178e-05
   104    2.947859943919e-16
   105    2.127736943292e-16
   106    1.868652910587e-04
   107    1.208263937967e-05
   108    2.049311704164e-04
   109    2.857368664549e-04
   110   -1.129834081483e-04
   111   -3.514573567936e-05
   112    1.171753738435e-04
   113   -1.620050112728e-04
   114   -6.158328131973e-16
   115   -2.451490692759e-04
   116   -1.897906180952e-03
   117   -9.467259135244e-03
   118   -3.250629248762e-02
   119   -7.678318071409e-02
   120   -2.812210318366e-02
   121   -1.028546400641e-01
   122    6.985188947700e-05
   123   -1.024393193677e-09
   124   -9.363239938573e-16
   125    1.064706903190e-04
   126    3.083093121484e-04
   127   -3.636420763051e-09
   128    4.892672280473e-16
   129   -6.202742016287e-04
   130   -3.195836647964e-04
   131    1.214935961038e-09
   132    3.021237475006e-16
   133    8.221112454614e-04
   134    1.132804127850e-04
   135   -1.458230296848e-09
   136    8.296811093590e-16
   137    3.749937148985e-05
   138    1.011376917419e-04
   139    1.185286020862e-09
   140   -2.358088837582e-13
   141    1.644874400274e-05
   142    1.290806927791e-16
   143   -1.505771116777e-15
   144   -1.356403733454e-04
   145   -1.958691689493e-09
   146   -5.428518867933e-05
   147    1.145167741143e-06
   148   -1.840132161940e-04
   149    5.631029675438e-05
   150    2.325582930229e-06
   151   -2.564151761445e-10
   152    3.300222859979e-16
   153    5.268410534250e-04
   154    4.078651871235e-03
   155    2.034563789891e-02
   156    6.985499062646e-02
   157    1.650098816871e-01
   158    6.020981009577e-02
   159    2.209400716752e-01
   160    5.270463745780e-05
   161   -7.556258128492e-05
   162   -1.418390148156e-15
   163    9.934600168724e-04
   164    3.637634637766e-04
   165    5.369366314495e-05
   166    2.902092457658e-15
   167    3.643647142546e-04
   168   -3.055044120512e-05
   169    1.370046169776e-04
   170   -5.563453423411e-15
   171   -2.672287040404e-04
   172    5.618774265654e-05
   173   -1.226713550920e-04
   174    6.763090859353e-15
   175   -3.744889995520e-05
   176   -1.228670874061e-04
   177   -2.313464057470e-05
   178    2.123154826356e-13
   179   -8.473510276821e-05
   180   -2.554226454563e-16
   181   -1.487428098564e-16
   182    1.868634230382e-04
   183   -1.208326417219e-05
   184    2.049344181394e-04
   185    2.857404402708e-04
   186   -1.129825449683e-04
   187   -3.514693327301e-05
   188    1.171763867528e-04
   189    1.620072759310e-04
   190    1.070667836257e-15
   191    5.268314076704e-04
   192    4.078577196151e-03
   193    2.034526539674e-02
   194    6.985371165538e-02
   195    1.650068605621e-01
   196    6.020870650427e-02
   197    2.209360259415e-01
   198   -5.270626560402e-05
   199   -7.556192675571e-05
   200    4.907214842733e-16
   201    9.934489846760e-04
   202   -3.637670342811e-04
   203    5.369274161270e-05
   204   -3.103581701135e-16
   205    3.643524184980e-04
   206    3.055406440509e-05
   207    1.370006301957e-04
   208    3.285674506448e-15
   209   -2.672148769993e-04
   210   -5.619005449260e-05
   211   -1.226698053063e-04
   212   -2.903086946594e-15
   213   -3.744794235088e-05
   214    1.228669723296e-04
   215   -2.313206531011e-05
   216   -2.039581131514e-13
   217   -8.473384031217e-05
   218   -1.762307604382e-15
   219   -1.966028775449e-16
   220    1.868652968629e-04
   221    1.208264093861e-05
   222    2.049311810073e-04
   223    2.857368804365e-04
   224   -1.129834083702e-04
   225   -3.514574162592e-05
   226   -1.171753793356e-04
   227    1.620050194794e-04
   228   -4.453212340752e-16
Sym=X
Ene= -0.004877
Spin=Alpha
Occup=1
     1   -1.225653886101e-04
     2   -2.654895697383e-04
     3   -3.351972272331e-04
     4   -8.174517099216e-05
     5    9.592194818915e-05
     6   -4.732607716537e-10
     7   -3.737065134444e-16
     8   -4.217467166184e-04
     9   -3.265102763172e-03
    10   -1.628707602388e-02
    11   -5.592228680712e-02
    12   -1.320872827197e-01
    13   -4.825614010577e-02
    14   -1.769372281303e-01
    15   -1.090455100126e-04
    16   -5.991535509792e-10
    17   -1.185236132222e-15
    18   -2.995112016202e-04
    19   -6.049124449304e-05
    20   -5.324254054561e-09
    21    2.212458605577e-15
    22   -2.224637249095e-03
    23    1.253744779114e-03
    24    3.549251847076e-09
    25    2.768696547082e-16
    26    9.019204829157e-05
    27    1.756470504526e-04
    28   -3.615422401385e-09
    29    2.337516029859e-14
    30   -1.342299818152e-06
    31   -1.517672744657e-05
    32    4.099920568254e-10
    33   -7.388008159940e-13
    34    4.955438756614e-05
    35   -2.193750120925e-16
    36    2.905634905332e-16
    37   -9.889199656144e-05
    38    3.056723003556e-09
    39    4.678368364105e-04
    40    3.621911002253e-03
    41    1.806700805049e-02
    42    6.203329525341e-02
    43    1.465246731538e-01
    44    5.353097945549e-02
    45    1.962599454843e-01
    46    5.738932362986e-05
    47    9.311441179331e-05
    48    2.409494593431e-15
    49    3.753089435932e-04
    50    4.953352493902e-05
    51    2.691805477085e-05
    52   -4.627998214260e-15
    53    2.274631683542e-03
    54   -6.493316535642e-04
    55   -1.085517807477e-03
    56    4.714217771267e-15
    57   -1.437798207590e-04
    58   -6.548503918300e-05
    59   -1.534183493083e-04
    60   -3.217046522063e-14
    61   -1.742465409698e-06
    62    8.285343930971e-06
    63    1.893643790226e-05
    64    7.654689415741e-13
    65   -5.731230251806e-05
    66    4.668645937720e-16
    67    9.755482974361e-16
    68   -5.933084950424e-05
    69    6.910407500113e-05
    70    1.398862589383e-04
    71    2.865290169554e-04
    72    3.292618095129e-04
    73    7.063866247577e-05
    74   -5.391104396406e-05
    75   -9.856907505676e-05
    76   -6.552702624146e-16
    77   -4.678452482894e-04
    78   -3.621976123092e-03
    79   -1.806733290463e-02
    80   -6.203441056846e-02
    81   -1.465273081092e-01
    82   -5.353194223268e-02
    83   -1.962634720392e-01
    84    5.738881301900e-05
    85   -9.311474769515e-05
    86    4.657589013416e-16
    87   -3.753228341719e-04
    88    4.952775998821e-05
    89   -2.691876904435e-05
    90   -7.459772495754e-16
    91   -2.274640784364e-03
    92   -6.493295827167e-04
    93    1.085521335805e-03
    94   -1.677997771826e-15
    95    1.437895541575e-04
    96   -6.548727718429e-05
    97    1.534149601771e-04
    98    2.755565330225e-14
    99    1.743026631419e-06
   100    8.286195483338e-06
   101   -1.893707497073e-05
   102   -7.502403404852e-13
   103    5.731372287583e-05
   104    2.214427331529e-17
   105    4.554607630753e-16
   106    5.932733112232e-05
   107    6.910412353074e-05
   108   -1.398894222921e-04
   109   -2.865328561608e-04
   110   -3.292607392594e-04
   111   -7.063664870131e-05
   112   -5.391295136620e-05
   113    9.857142852953e-05
   114   -3.977950091942e-16
   115    4.217467237644e-04
   116    3.265102818478e-03
   117    1.628707629981e-02
   118    5.592228775446e-02
   119    1.320872849575e-01
   120    4.825614092336e-02
   121    1.769372311270e-01
   122   -1.090455110530e-04
   123   -6.122315309391e-10
   124   -8.429662492683e-16
   125    2.995112094861e-04
   126   -6.049124545697e-05
   127   -5.369062067895e-09
   128    1.316177989441e-15
   129    2.224637258576e-03
   130    1.253744783029e-03
   131    3.564544137810e-09
   132   -4.142212805946e-15
   133   -9.019206549996e-05
   134    1.756470458166e-04
   135   -3.647327161427e-09
   136   -1.438079116347e-14
   137    1.342298506426e-06
   138   -1.517673001930e-05
   139    4.248909621830e-10
   140    7.077251534206e-13
   141   -4.955438848856e-05
   142    1.100235889787e-16
   143    4.317964816768e-16
   144    9.889199696656e-05
   145   -3.080964277610e-09
   146    1.225653909880e-04
   147    2.654895722803e-04
   148    3.351972277430e-04
   149    8.174516865478e-05
   150    9.592194995123e-05
   151   -4.764535592729e-10
   152    2.928630315650e-16
   153   -4.678367803043e-04
   154   -3.621910567886e-03
   155   -1.806700588374e-02
   156   -6.203328781396e-02
   157   -1.465246555807e-01
   158   -5.353097303550e-02
   159   -1.962599219515e-01
   160    5.738931293956e-05
   161    9.311440878890e-05
   162    1.361425851215e-15
   163   -3.753088793953e-04
   164    4.953349897894e-05
   165    2.691806277618e-05
   166   -5.773983615965e-16
   167   -2.274631611678e-03
   168   -6.493316309934e-04
   169   -1.085517784762e-03
   170    3.917380336387e-15
   171    1.437797409354e-04
   172   -6.548504273955e-05
   173   -1.534183637239e-04
   174    6.910907034757e-15
   175    1.742459918837e-06
   176    8.285345689817e-06
   177    1.893642140889e-05
   178   -6.818291187248e-13
   179    5.731229517606e-05
   180   -2.694921885566e-16
   181   -3.774056539935e-16
   182    5.933083586975e-05
   183   -6.910408008306e-05
   184   -1.398862401236e-04
   185   -2.865289963162e-04
   186   -3.292618042621e-04
   187   -7.063866939873e-05
   188   -5.391103846624e-05
   189   -9.856906179434e-05
   190   -8.243097555066e-16
   191    4.678451843365e-04
   192    3.621975627992e-03
   193    1.806733043490e-02
   194    6.203440208877e-02
   195    1.465272880789e-01
   196    5.353193491511e-02
   197    1.962634452159e-01
   198    5.738880389007e-05
   199   -9.311474257560e-05
   200   -9.940506385441e-17
   201    3.753227603013e-04
   202    4.952774102122e-05
   203   -2.691877266364e-05
   204    1.089228163787e-15
   205    2.274640702898e-03
   206   -6.493295606029e-04
   207    1.085521308435e-03
   208   -2.551357197278e-15
   209   -1.437894571756e-04
   210   -6.548727979388e-05
   211    1.534149804347e-04
   212   -1.152722301754e-14
   213   -1.743019786071e-06
   214    8.286192632833e-06
   215   -1.893705813388e-05
   216    6.987053674849e-13
   217   -5.731371447421e-05
   218   -1.107670690164e-17
   219    4.456330978954e-17
   220   -5.932732130661e-05
   221   -6.910412629071e-05
   222    1.398894007979e-04
   223    2.865328324975e-04
   224    3.292607338262e-04
   225    7.063665780251e-05
   226   -5.391294430799e-05
   227    9.857141373663e-05
   228   -9.956627150119e-17
Sym=X
Ene= -0.078218
Spin=Alpha
Occup=1
     1    2.468029197983e-04
     2    3.053905947390e-04
     3   -6.644838466311e-05
     4   -1.505505485652e-04
     5   -2.326711349449e-04
     6   -3.023328467228e-10
     7    3.648931533482e-16
     8    6.613261792986e-04
     9    5.119685781109e-03
    10    2.553942809690e-02
    11    8.768425676538e-02
    12    2.071545071209e-01
    13    7.568573661378e-02
    14    2.772588979897e-01
    15    9.251398364680e-06
    16   -3.201419534087e-10
    17    1.336076048470e-15
    18    1.068654934283e-03
    19   -1.697397596286e-04
    20   -3.460124725847e-09
    21   -2.333872686192e-15
    22    8.022514185467e-04
    23   -2.133343698954e-04
    24    2.296102644531e-09
    25    1.003815794514e-14
    26   -7.496868486918e-04
    27    1.312089320882e-04
    28   -2.378218808944e-09
    29   -7.884171252219e-14
    30   -4.284129497041e-05
    31    7.535533189463e-05
    32    2.750241109165e-10
    33    1.032681381968e-12
    34   -1.102849563449e-04
    35   -9.122087680913e-16
    36    1.228710396564e-16
    37   -1.257233002592e-04
    38    1.963483874305e-09
    39    2.980509348849e-04
    40    2.307364968152e-03
    41    1.151029229240e-02
    42    3.951787840327e-02
    43    9.336330522088e-02
    44    3.411133596782e-02
    45    1.249481880385e-01
    46    5.503084494059e-05
    47   -3.552124829496e-05
    48    1.129172848137e-15
    49    5.090954864991e-04
    50    4.862605314524e-04
    51   -3.830865381522e-04
    52    2.711872454935e-15
    53    2.383936945602e-04
    54   -3.607667952268e-04
    55    1.900655741400e-04
    56   -1.141417471158e-14
    57   -3.657652651245e-04
    58    3.993146459021e-04
    59   -1.407315800749e-04
    60    8.782538828694e-14
    61   -2.136897860862e-05