[Molden Format]
[Atoms] (Angs)
  H      1    1      2.47503475      0.00000000     -0.00000000
  C      2    6      1.39359294      0.00000000     -0.00000000
  C      3    6      0.69679647      1.20688689      0.00000000
  H      4    1      1.23751738      2.14344297      0.00000000
  C      5    6     -0.69679647      1.20688689      0.00000000
  H      6    1     -1.23751738      2.14344297      0.00000000
  C      7    6     -1.39359294     -0.00000000      0.00000000
  H      8    1     -2.47503475     -0.00000000      0.00000000
  C      9    6     -0.69679647     -1.20688689     -0.00000000
  H     10    1     -1.23751738     -2.14344297     -0.00000000
  C     11    6      0.69679647     -1.20688689     -0.00000000
  H     12    1      1.23751738     -2.14344297     -0.00000000
[GTO]
1    0
S    3    1.000000
   3.38650000E+01    2.54938000E-02 
   5.09479000E+00    1.90373000E-01 
   1.15879000E+00    8.52161000E-01 
S    1    1.000000
   3.25840000E-01    1.00000000E+00 
S    1    1.000000
   1.02741000E-01    1.00000000E+00 
S    1    1.000000
   3.60000000E-02    1.00000000E+00 
P    1    1.000000
   7.50000000E-01    1.00000000E+00 

2    0
S    1    1.000000
   4.56324000E+03    1.96665000E-03 
S    1    1.000000
   6.82024000E+02    1.52306000E-02 
S    1    1.000000
   1.54973000E+02    7.61269000E-02 
S    1    1.000000
   4.44553000E+01    2.60801000E-01 
S    1    1.000000
   1.30290000E+01    6.16462000E-01 
S    1    1.000000
   1.82773000E+00    2.21006000E-01 
SP   3    1.000000
   2.09642000E+01    1.14660000E-01   4.02487000E-02 
   4.80331000E+00    9.19999000E-01   2.37594000E-01 
   1.45933000E+00   -3.03068000E-03   8.15854000E-01 
SP   1    1.000000
   4.83456000E-01    1.00000000E+00   1.00000000E+00 
SP   1    1.000000
   1.45585000E-01    1.00000000E+00   1.00000000E+00 
SP   1    1.000000
   4.38000000E-02    1.00000000E+00   1.00000000E+00 
SP   1    1.000000
   1.31927711E-02    1.00000000E+00   1.00000000E+00 
D    1    1.000000
   6.26000000E-01    1.00000000E+00 

3    0
S    1    1.000000
   4.56324000E+03    1.96665000E-03 
S    1    1.000000
   6.82024000E+02    1.52306000E-02 
S    1    1.000000
   1.54973000E+02    7.61269000E-02 
S    1    1.000000
   4.44553000E+01    2.60801000E-01 
S    1    1.000000
   1.30290000E+01    6.16462000E-01 
S    1    1.000000
   1.82773000E+00    2.21006000E-01 
SP   3    1.000000
   2.09642000E+01    1.14660000E-01   4.02487000E-02 
   4.80331000E+00    9.19999000E-01   2.37594000E-01 
   1.45933000E+00   -3.03068000E-03   8.15854000E-01 
SP   1    1.000000
   4.83456000E-01    1.00000000E+00   1.00000000E+00 
SP   1    1.000000
   1.45585000E-01    1.00000000E+00   1.00000000E+00 
SP   1    1.000000
   4.38000000E-02    1.00000000E+00   1.00000000E+00 
SP   1    1.000000
   1.31927711E-02    1.00000000E+00   1.00000000E+00 
D    1    1.000000
   6.26000000E-01    1.00000000E+00 

4    0
S    3    1.000000
   3.38650000E+01    2.54938000E-02 
   5.09479000E+00    1.90373000E-01 
   1.15879000E+00    8.52161000E-01 
S    1    1.000000
   3.25840000E-01    1.00000000E+00 
S    1    1.000000
   1.02741000E-01    1.00000000E+00 
S    1    1.000000
   3.60000000E-02    1.00000000E+00 
P    1    1.000000
   7.50000000E-01    1.00000000E+00 

5    0
S    1    1.000000
   4.56324000E+03    1.96665000E-03 
S    1    1.000000
   6.82024000E+02    1.52306000E-02 
S    1    1.000000
   1.54973000E+02    7.61269000E-02 
S    1    1.000000
   4.44553000E+01    2.60801000E-01 
S    1    1.000000
   1.30290000E+01    6.16462000E-01 
S    1    1.000000
   1.82773000E+00    2.21006000E-01 
SP   3    1.000000
   2.09642000E+01    1.14660000E-01   4.02487000E-02 
   4.80331000E+00    9.19999000E-01   2.37594000E-01 
   1.45933000E+00   -3.03068000E-03   8.15854000E-01 
SP   1    1.000000
   4.83456000E-01    1.00000000E+00   1.00000000E+00 
SP   1    1.000000
   1.45585000E-01    1.00000000E+00   1.00000000E+00 
SP   1    1.000000
   4.38000000E-02    1.00000000E+00   1.00000000E+00 
SP   1    1.000000
   1.31927711E-02    1.00000000E+00   1.00000000E+00 
D    1    1.000000
   6.26000000E-01    1.00000000E+00 

6    0
S    3    1.000000
   3.38650000E+01    2.54938000E-02 
   5.09479000E+00    1.90373000E-01 
   1.15879000E+00    8.52161000E-01 
S    1    1.000000
   3.25840000E-01    1.00000000E+00 
S    1    1.000000
   1.02741000E-01    1.00000000E+00 
S    1    1.000000
   3.60000000E-02    1.00000000E+00 
P    1    1.000000
   7.50000000E-01    1.00000000E+00 

7    0
S    1    1.000000
   4.56324000E+03    1.96665000E-03 
S    1    1.000000
   6.82024000E+02    1.52306000E-02 
S    1    1.000000
   1.54973000E+02    7.61269000E-02 
S    1    1.000000
   4.44553000E+01    2.60801000E-01 
S    1    1.000000
   1.30290000E+01    6.16462000E-01 
S    1    1.000000
   1.82773000E+00    2.21006000E-01 
SP   3    1.000000
   2.09642000E+01    1.14660000E-01   4.02487000E-02 
   4.80331000E+00    9.19999000E-01   2.37594000E-01 
   1.45933000E+00   -3.03068000E-03   8.15854000E-01 
SP   1    1.000000
   4.83456000E-01    1.00000000E+00   1.00000000E+00 
SP   1    1.000000
   1.45585000E-01    1.00000000E+00   1.00000000E+00 
SP   1    1.000000
   4.38000000E-02    1.00000000E+00   1.00000000E+00 
SP   1    1.000000
   1.31927711E-02    1.00000000E+00   1.00000000E+00 
D    1    1.000000
   6.26000000E-01    1.00000000E+00 

8    0
S    3    1.000000
   3.38650000E+01    2.54938000E-02 
   5.09479000E+00    1.90373000E-01 
   1.15879000E+00    8.52161000E-01 
S    1    1.000000
   3.25840000E-01    1.00000000E+00 
S    1    1.000000
   1.02741000E-01    1.00000000E+00 
S    1    1.000000
   3.60000000E-02    1.00000000E+00 
P    1    1.000000
   7.50000000E-01    1.00000000E+00 

9    0
S    1    1.000000
   4.56324000E+03    1.96665000E-03 
S    1    1.000000
   6.82024000E+02    1.52306000E-02 
S    1    1.000000
   1.54973000E+02    7.61269000E-02 
S    1    1.000000
   4.44553000E+01    2.60801000E-01 
S    1    1.000000
   1.30290000E+01    6.16462000E-01 
S    1    1.000000
   1.82773000E+00    2.21006000E-01 
SP   3    1.000000
   2.09642000E+01    1.14660000E-01   4.02487000E-02 
   4.80331000E+00    9.19999000E-01   2.37594000E-01 
   1.45933000E+00   -3.03068000E-03   8.15854000E-01 
SP   1    1.000000
   4.83456000E-01    1.00000000E+00   1.00000000E+00 
SP   1    1.000000
   1.45585000E-01    1.00000000E+00   1.00000000E+00 
SP   1    1.000000
   4.38000000E-02    1.00000000E+00   1.00000000E+00 
SP   1    1.000000
   1.31927711E-02    1.00000000E+00   1.00000000E+00 
D    1    1.000000
   6.26000000E-01    1.00000000E+00 

10    0
S    3    1.000000
   3.38650000E+01    2.54938000E-02 
   5.09479000E+00    1.90373000E-01 
   1.15879000E+00    8.52161000E-01 
S    1    1.000000
   3.25840000E-01    1.00000000E+00 
S    1    1.000000
   1.02741000E-01    1.00000000E+00 
S    1    1.000000
   3.60000000E-02    1.00000000E+00 
P    1    1.000000
   7.50000000E-01    1.00000000E+00 

11    0
S    1    1.000000
   4.56324000E+03    1.96665000E-03 
S    1    1.000000
   6.82024000E+02    1.52306000E-02 
S    1    1.000000
   1.54973000E+02    7.61269000E-02 
S    1    1.000000
   4.44553000E+01    2.60801000E-01 
S    1    1.000000
   1.30290000E+01    6.16462000E-01 
S    1    1.000000
   1.82773000E+00    2.21006000E-01 
SP   3    1.000000
   2.09642000E+01    1.14660000E-01   4.02487000E-02 
   4.80331000E+00    9.19999000E-01   2.37594000E-01 
   1.45933000E+00   -3.03068000E-03   8.15854000E-01 
SP   1    1.000000
   4.83456000E-01    1.00000000E+00   1.00000000E+00 
SP   1    1.000000
   1.45585000E-01    1.00000000E+00   1.00000000E+00 
SP   1    1.000000
   4.38000000E-02    1.00000000E+00   1.00000000E+00 
SP   1    1.000000
   1.31927711E-02    1.00000000E+00   1.00000000E+00 
D    1    1.000000
   6.26000000E-01    1.00000000E+00 

12    0
S    3    1.000000
   3.38650000E+01    2.54938000E-02 
   5.09479000E+00    1.90373000E-01 
   1.15879000E+00    8.52161000E-01 
S    1    1.000000
   3.25840000E-01    1.00000000E+00 
S    1    1.000000
   1.02741000E-01    1.00000000E+00 
S    1    1.000000
   3.60000000E-02    1.00000000E+00 
P    1    1.000000
   7.50000000E-01    1.00000000E+00 

[MO]
Sym=X
Ene= -0.182286
Spin=Alpha
Occup=1
     1   -3.391876851614e-10
     2   -1.127094975377e-09
     3    2.052319370140e-09
     4   -3.261634659251e-10
     5    8.030887120288e-10
     6    2.942378403078e-05
     7    8.675535841736e-16
     8    3.938075470555e-11
     9    3.051600578583e-10
    10    1.521260488757e-09
    11    5.234157554151e-09
    12    1.234255198763e-08
    13    5.407190578828e-09
    14    1.692218074384e-08
    15    4.497399431573e-10
    16    1.198917793056e-04
    17    1.651278067168e-16
    18   -4.831516462697e-09
    19    3.553284188627e-09
    20    4.141522351960e-04
    21   -1.349987896686e-15
    22    4.014699626779e-09
    23   -2.413362619129e-09
    24   -1.364688063720e-04
    25   -8.849916638762e-16
    26   -5.971478689823e-09
    27    6.321267443182e-10
    28    1.580772454358e-04
    29    6.371541948314e-15
    30   -1.698745942574e-10
    31    5.354175581991e-10
    32   -1.362948311718e-04
    33   -1.305847019114e-13
    34    1.894656630010e-10
    35   -3.452334189000e-16
    36    1.087270484456e-15
    37    1.578392639814e-09
    38   -2.238848040700e-04
    39    5.547102527286e-04
    40    4.294430628456e-03
    41    2.142193165750e-02
    42    7.355126907176e-02
    43    1.737393870920e-01
    44    6.347052529449e-02
    45    2.326613274195e-01
    46    9.105412313597e-05
    47    3.781743704913e-05
    48    1.470710467898e-15
    49    6.373375610582e-04
    50    2.080523515104e-04
    51   -5.379878843337e-05
    52   -8.197752760993e-16
    53    7.075119342503e-04
    54   -2.110516856423e-04
    55   -2.290822258611e-04
    56   -2.698774800428e-15
    57   -7.827471297459e-04
    58    1.372235974510e-04
    59    7.959970167098e-05
    60   -1.194832408729e-14
    61   -5.385398835879e-05
    62    6.587879987054e-06
    63    1.477066142968e-04
    64    1.239601796389e-13
    65   -7.270503543269e-05
    66   -7.626511818920e-16
    67    1.687704174419e-15
    68   -1.083514922228e-04
    69   -3.621658176621e-05
    70    1.862608085545e-04
    71    2.044936002278e-04
    72    5.104074040042e-05
    73   -6.571667754895e-05
    74   -5.787909238944e-05
    75   -1.296735892025e-04
    76    3.730900408491e-16
    77   -5.547204131963e-04
    78   -4.294509287727e-03
    79   -2.142232403581e-02
    80   -7.355261626266e-02
    81   -1.737425694060e-01
    82   -6.347168614690e-02
    83   -2.326655881735e-01
    84    9.105339963840e-05
    85   -3.781846310723e-05
    86    2.445534812631e-16
    87   -6.373590474341e-04
    88    2.080460549377e-04
    89    5.380214143021e-05
    90   -1.834825581127e-15
    91   -7.075171613976e-04
    92   -2.110510742005e-04
    93    2.290836512791e-04
    94   -1.489239430887e-15
    95    7.827494633053e-04
    96    1.372229371097e-04
    97   -7.960144459572e-05
    98    2.357251830029e-14
    99    5.385462689604e-05
   100    6.589605273614e-06
   101   -1.477071322600e-04
   102   -1.697171241560e-13
   103    7.270676440024e-05
   104    2.686256770680e-16
   105    9.649539933588e-16
   106    1.083483429560e-04
   107   -3.621792878472e-05
   108   -1.862649264172e-04
   109   -2.044996455426e-04
   110   -5.103763312664e-05
   111    6.571718731466e-05
   112   -5.788143343940e-05
   113    1.296771031261e-04
   114    2.529300216226e-16
   115   -3.496586611066e-11
   116   -2.704177370974e-10
   117   -1.349899342005e-09
   118   -4.623812828961e-09
   119   -1.094381266448e-08
   120   -3.100400647510e-09
   121   -1.426075039468e-08
   122   -4.375335812365e-10
   123   -1.198917796604e-04
   124   -8.816633862683e-16
   125   -4.910234257771e-09
   126   -3.554137987329e-09
   127   -4.141522384082e-04
   128   -3.974722608463e-15
   129    3.737943644551e-09
   130    2.267766360561e-09
   131    1.364688085172e-04
   132    4.275878161769e-15
   133   -5.930827244143e-09
   134   -6.458974124772e-10
   135   -1.580772475633e-04
   136   -3.682870606660e-14
   137   -1.682200909951e-10
   138   -5.305272278359e-10
   139    1.362948314778e-04
   140    2.288168566006e-13
   141    1.996399029282e-10
   142    2.325208879974e-16
   143    4.489816412699e-17
   144    1.573167298893e-09
   145   -2.238848059134e-04
   146   -3.631616490998e-10
   147   -1.169142525092e-09
   148    2.018679712667e-09
   149   -3.289398283644e-10
   150   -8.235802691091e-10
   151   -2.942378428594e-05
   152   -5.249264304953e-16
   153    5.547102929565e-04
   154    4.294430939887e-03
   155    2.142193321099e-02
   156    7.355127440578e-02
   157    1.737393996904e-01
   158    6.347052989689e-02
   159    2.326613442981e-01
   160   -9.105412675103e-05
   161   -3.781744883298e-05
   162   -1.888135026150e-15
   163    6.373375836355e-04
   164   -2.080523340371e-04
   165    5.379876872689e-05
   166    2.802674273422e-15
   167    7.075121738949e-04
   168    2.110517399623e-04
   169    2.290823532784e-04
   170   -8.180028638565e-15
   171   -7.827471333250e-04
   172   -1.372235729800e-04
   173   -7.959969143054e-05
   174    3.188820258343e-14
   175   -5.385398783257e-05
   176   -6.587882197225e-06
   177   -1.477066141085e-04
   178   -2.341232955902e-13
   179   -7.270503986170e-05
   180   -8.255338928301e-16
   181   -1.578483219812e-15
   182   -1.083514859170e-04
   183   -3.621656406202e-05
   184    1.862608196781e-04
   185    2.044936267232e-04
   186    5.104077849740e-05
   187   -6.571666676132e-05
   188    5.787909848724e-05
   189    1.296735953633e-04
   190    1.247144204353e-16
   191   -5.547204483499e-04
   192   -4.294509559887e-03
   193   -2.142232539340e-02
   194   -7.355262092408e-02
   195   -1.737425804154e-01
   196   -6.347169016887e-02
   197   -2.326656029252e-01
   198   -9.105340354807e-05
   199    3.781847464628e-05
   200   -9.021389723785e-16
   201   -6.373590616005e-04
   202   -2.080460409453e-04
   203   -5.380212212005e-05
   204    3.609037569796e-16
   205   -7.075173954725e-04
   206    2.110511297892e-04
   207   -2.290837766107e-04
   208    2.314218601299e-15
   209    7.827494613957e-04
   210   -1.372229137858e-04
   211    7.960143209384e-05
   212   -1.601522852781e-14
   213    5.385462598542e-05
   214   -6.589606887369e-06
   215    1.477071316121e-04
   216    1.840236731590e-13
   217    7.270676796258e-05
   218   -9.822627194119e-16
   219    2.617161241515e-16
   220    1.083483387516e-04
   221   -3.621791113245e-05
   222   -1.862649356823e-04
   223   -2.044996697463e-04
   224   -5.103767198713e-05
   225    6.571717496223e-05
   226    5.788143838967e-05
   227   -1.296771078140e-04
   228   -6.663945540591e-16
Sym=X
Ene= -0.570107
Spin=Alpha
Occup=1
     1   -4.259341656409e-05
     2   -1.309200873466e-04
     3    2.226573815065e-04
     4   -3.645147579163e-05
     5    9.255037104771e-05
     6   -2.664987763755e-10
     7   -1.572155234994e-17
     8   -1.119237900607e-05
     9   -8.661781686953e-05
    10   -4.321822349154e-04
    11   -1.482672575452e-03
    12   -3.504616101955e-03
    13   -1.181043111431e-03
    14   -4.649907715095e-03
    15    4.726796661956e-05
    16   -1.093884866393e-09
    17    5.111864002399e-16
    18   -5.505975235042e-04
    19    3.908175790716e-04
    20   -3.772427664977e-09
    21    8.685562818685e-16
    22    4.118790000451e-04
    23   -2.505481553146e-04
    24    1.241732091617e-09
    25   -5.763218886976e-16
    26   -6.439289797094e-04
    27    6.995039267094e-05
    28   -1.480395415881e-09
    29    6.127484705225e-15
    30   -1.789268719913e-05
    31    5.713404382118e-05
    32    1.240373513961e-09
    33   -1.387914807717e-13
    34    2.319417067205e-05
    35    7.906867756135e-16
    36    8.213235389125e-16
    37    1.734939206556e-04
    38    2.036819687212e-09
    39   -5.544845214045e-04
    40   -4.292652237345e-03
    41   -2.141316660835e-02
    42   -7.351996834730e-02
    43   -1.736677658950e-01
    44   -6.334509542870e-02
    45   -2.325221530754e-01
    46    3.614548195056e-05
    47   -5.481480091789e-05
    48   -1.568385733660e-15
    49   -1.174820939776e-03
    50    3.429210230780e-04
    51    1.883405753692e-04
    52    1.847345604485e-15
    53   -2.810658992669e-04
    54   -3.431940408401e-05
    55    7.421307617114e-05
    56   -7.249557053630e-16
    57    1.227002645992e-04
    58    3.465620782342e-05
    59   -9.479279790909e-05
    60   -4.223681385550e-15
    61    3.485260521163e-05
    62   -9.348909341600e-05
    63   -2.844219872791e-05
    64    1.521122452274e-13
    65    9.440284481837e-05
    66   -9.626895209967e-16
    67    4.842249836181e-16
    68   -1.705236744246e-04
    69    7.608543101080e-05
    70   -2.250205929161e-04
    71   -3.312055479370e-04
    72    1.726692311047e-04
    73    2.791216906935e-05
    74    1.279202941150e-04
    75    1.927471353387e-04
    76    2.043242319059e-16
    77   -5.544743544304e-04
    78   -4.292573527116e-03
    79   -2.141277397761e-02
    80   -7.351862026565e-02
    81   -1.736645815204e-01
    82   -6.334393220553e-02
    83   -2.325178887258e-01
    84   -3.614719703649e-05
    85   -5.481411047312e-05
    86    5.521048075907e-16
    87   -1.174809306902e-03
    88   -3.429247983339e-04
    89    1.883395906393e-04
    90    9.887943637867e-16
    91   -2.810529051453e-04
    92    3.432325043988e-05
    93    7.420886255312e-05
    94   -1.407971591339e-16
    95    1.226856557395e-04
    96   -3.465870221531e-05
    97   -9.479118343878e-05
    98    6.565678256364e-15
    99    3.485159270270e-05
   100    9.348897109936e-05
   101   -2.843949533486e-05
   102   -1.663328768870e-13
   103    9.440151215207e-05
   104   -3.765120251424e-16
   105   -4.321090440706e-16
   106   -1.705256553530e-04
   107   -7.608476755610e-05
   108   -2.250171807304e-04
   109   -3.312017908776e-04
   110    1.726701457724e-04
   111    2.791090855399e-05
   112   -1.279192324414e-04
   113    1.927447558555e-04
   114    6.603640659747e-16
   115   -1.119237408367e-05
   116   -8.661777876753e-05
   117   -4.321820448317e-04
   118   -1.482671922875e-03
   119   -3.504614560016e-03
   120   -1.181042548062e-03
   121   -4.649905652400e-03
   122   -4.726796596954e-05
   123    1.099543257618e-09
   124    9.349088548891e-16
   125   -5.505975128433e-04
   126   -3.908175766846e-04
   127    3.825406635974e-09
   128   -9.695861562782e-16
   129    4.118789933987e-04
   130    2.505481487275e-04
   131   -1.277069557511e-09
   132   -4.028070198511e-16
   133   -6.439289937037e-04
   134   -6.995039387447e-05
   135    1.517818134431e-09
   136   -5.119421196610e-16
   137   -1.789268785755e-05
   138   -5.713404424271e-05
   139   -1.244418682888e-09
   140    1.517952071892e-13
   141    2.319416970806e-05
   142   -2.814374212719e-16
   143    9.938376867330e-16
   144    1.734939184997e-04
   145    2.067114157363e-09
   146   -4.259341445999e-05
   147   -1.309200857543e-04
   148    2.226573788304e-04
   149   -3.645147640638e-05
   150   -9.255036897555e-05
   151    2.711793924987e-10
   152   -2.973956436192e-16
   153   -5.544845561278e-04
   154   -4.292652506161e-03
   155   -2.141316794932e-02
   156   -7.351997295123e-02
   157   -1.736677767720e-01
   158   -6.334509940262e-02
   159   -2.325221676321e-01
   160   -3.614548537843e-05
   161    5.481480237176e-05
   162    1.705186674834e-15
   163   -1.174820999325e-03
   164   -3.429210577031e-04
   165   -1.883405674309e-04
   166   -2.730652112293e-15
   167   -2.810659250439e-04
   168    3.431942350612e-05
   169   -7.421308793323e-05
   170    4.581749864193e-15
   171    1.227003072796e-04
   172   -3.465622611241e-05
   173    9.479281881909e-05
   174   -2.163369805451e-15
   175    3.485260771681e-05
   176    9.348909757134e-05
   177    2.844220104360e-05
   178   -1.389088326801e-13
   179    9.440285080619e-05
   180   -2.678094725863e-17
   181    2.772977788877e-16
   182   -1.705236953707e-04
   183    7.608542842626e-05
   184   -2.250206062009e-04
   185   -3.312055631972e-04
   186    1.726692380822e-04
   187    2.791217813251e-05
   188   -1.279203030576e-04
   189   -1.927471448217e-04
   190   -1.163354197809e-15
   191   -5.544744027194e-04
   192   -4.292573900945e-03
   193   -2.141277584246e-02
   194   -7.351862666819e-02
   195   -1.736645966463e-01
   196   -6.334393773175e-02
   197   -2.325179089712e-01
   198    3.614719835100e-05
   199    5.481411237611e-05
   200   -6.994191768572e-16
   201   -1.174809383677e-03
   202    3.429248207423e-04
   203   -1.883395914726e-04
   204    1.764076672955e-16
   205   -2.810529695918e-04
   206   -3.432325168161e-05
   207   -7.420888562395e-05
   208   -8.629149039841e-16
   209    1.226857141389e-04
   210    3.465870730201e-05
   211    9.479119684176e-05
   212   -4.843230669468e-15
   213    3.485159583474e-05
   214   -9.348897517368e-05
   215    2.843949926461e-05
   216    1.396244030219e-13
   217    9.440152015754e-05
   218    1.577502768531e-15
   219    2.288774465627e-16
   220   -1.705256691121e-04
   221   -7.608476963163e-05
   222   -2.250171986469e-04
   223   -3.312018134549e-04
   224    1.726701493700e-04
   225    2.791091943628e-05
   226    1.279192423177e-04
   227   -1.927447696048e-04
   228    4.844967512214e-16
Sym=X
Ene= 0.570107
Spin=Alpha
Occup=0
     1   -8.303670942079e-15
     2   -6.752753635143e-14
     3   -5.163116259913e-13
     4   -2.881418335598e-12
     5    1.916561800775e-14
     6    1.362361097182e-14
     7    1.561362355624e-02
     8    3.853911211395e-17
     9    6.147701037949e-17
    10   -3.546184064614e-16
    11    1.098572157375e-15
    12    8.599745821605e-16
    13    5.780946745764e-15
    14    3.262958111776e-15
    15   -1.273852505369e-14
    16   -7.380369436657e-15
    17    1.518213339859e-01
    18   -3.758641557566e-14
    19   -1.649100674325e-14
    20    3.244410883347e-15
    21    2.442099887271e-01
    22    1.292568437185e-13
    23    2.228488815416e-13
    24   -4.961205129895e-13
    25    4.359677079454e-01
    26   -3.248195620546e-11
    27    7.303348594814e-12
    28    3.370653370236e-11
    29    4.235487548504e-01
    30   -2.346281993381e-12
    31   -2.263979147899e-12
    32    1.876717217064e-12
    33    1.202793548751e-01
    34    8.457282691901e-15
    35    8.353163950970e-03
    36   -2.077145538309e-11
    37    9.264645549122e-15
    38    6.310111127034e-15
    39    1.017632008448e-16
    40    1.099602258745e-16
    41    5.456990471785e-16
    42    1.171187416180e-15
    43    1.344447638106e-16
    44   -4.760196883717e-15
    45    9.100830531616e-15
    46   -1.416619999289e-14
    47   -5.614338673612e-15
    48   -7.628268973076e-02
    49   -2.374192591175e-14
    50   -1.306980732149e-14
    51    3.334312152897e-14
    52   -1.224206409878e-01
    53    4.007490175770e-13
    54   -1.962123760788e-14
    55   -3.807336243850e-13
    56   -2.180335442353e-01
    57   -3.013394438306e-11
    58   -1.544941538229e-11
    59    4.504871241010e-12
    60   -2.113636763825e-01
    61   -4.908708623349e-13
    62    1.706783113832e-12
    63    1.415632881180e-13
    64   -6.007881066380e-02
    65   -1.021512470196e-14
    66    3.327037404467e-02
    67   -2.405767956758e-02
    68   -1.408461117420e-15
    69   -6.845958897544e-15
    70    3.293216165562e-18
    71   -8.302144345965e-14
    72    7.913055925182e-13
    73    1.473722387513e-12
    74   -4.541886880398e-16
    75    4.466279812823e-15
    76   -7.817684959166e-03
    77   -1.167546109418e-16
    78    2.687894826991e-16
    79   -3.289522361920e-16
    80    4.281444491121e-15
    81    6.395474188311e-16
    82   -5.887101659320e-15
    83    2.358418960831e-14
    84    1.282949772957e-14
    85   -1.756074688637e-14
    86   -7.628268185171e-02
    87   -1.239184239768e-14
    88    2.317977279977e-14
    89   -2.848509976777e-15
    90   -1.224206284784e-01
    91   -4.271653880293e-13
    92   -3.422310509974e-14
    93   -6.786938154851e-15
    94   -2.180335254081e-01
    95   -6.054682633823e-12
    96    2.941181988984e-12
    97   -4.140373638564e-12
    98   -2.113637948852e-01
    99    1.966249808723e-13
   100   -3.069208529612e-13
   101   -2.603187596968e-13
   102   -6.007860031381e-02
   103   -9.947152452515e-16
   104   -3.327037446321e-02
   105   -2.405767934183e-02
   106   -7.204578976431e-15
   107   -8.340256843405e-15
   108   -8.527832906159e-15
   109   -5.037486720748e-14
   110    4.260788761705e-13
   111    6.494482356472e-12
   112    1.553897029042e-15
   113    2.302043129260e-14
   114   -7.817684518659e-03
   115    1.249848121152e-16
   116    3.434929774612e-16
   117   -8.070001214127e-16
   118   -3.191607490973e-15
   119   -6.987021800814e-16
   120    3.845873343140e-15
   121   -2.253764800809e-14
   122   -9.421509412145e-15
   123    3.044962377752e-15
   124    1.518213339838e-01
   125    3.902793467303e-14
   126    3.824837183714e-14
   127    2.410849967109e-14
   128    2.442099887232e-01
   129    3.296460524775e-13
   130   -8.035351295865e-14
   131   -4.892600561779e-14
   132    4.359677079434e-01
   133    1.102955495022e-11
   134   -1.297746506732e-11
   135   -3.814341425686e-12
   136    4.235487546810e-01
   137   -4.022692767142e-13
   138   -1.770801507157e-12
   139   -2.985342715278e-12
   140    1.202793547513e-01
   141    1.149725880455e-15
   142   -8.353163949952e-03
   143    1.476432290233e-11
   144   -4.275871355834e-15
   145   -9.682081292802e-15
   146   -3.350951702421e-15
   147    1.219877973662e-13
   148   -1.383611654693e-12
   149   -1.441779576907e-11
   150    5.073082902723e-15
   151    6.948194597567e-15
   152    1.561362355569e-02
   153   -1.517129010339e-16
   154    9.784897169540e-17
   155    2.234501729287e-16
   156   -8.962868383885e-16
   157   -4.195065326642e-15
   158   -1.107235844580e-14
   159   -1.028656914278e-15
   160   -1.100848238554e-14
   161   -6.425495288645e-15
   162   -7.628268972189e-02
   163    6.314855251913e-14
   164   -1.467110029952e-14
   165   -5.319522292948e-14
   166   -1.224206409708e-01
   167   -4.725626591860e-13
   168   -2.164661046773e-13
   169    4.931975971888e-14
   170   -2.180335442293e-01
   171    3.480577808085e-11
   172    2.252479581817e-11
   173   -1.515134298087e-12
   174   -2.113636762344e-01
   175    1.434197228293e-12
   176    1.572770864048e-13
   177    5.299933095942e-12
   178   -6.007881050793e-02
   179   -3.942218416909e-15
   180   -3.327037404526e-02
   181    2.405767957198e-02
   182   -3.502677297904e-16
   183    5.093787763868e-15
   184    2.023006595091e-14
   185   -6.144341390852e-14
   186    1.099151340519e-12
   187    1.150371313548e-11
   188   -1.493464888193e-15
   189   -7.121878891763e-15
   190   -7.817684959399e-03
   191   -8.285226358059e-16
   192    1.368860828057e-15
   193   -2.496573998378e-15
   194    5.620859607994e-16
   195    7.799718896880e-16
   196    6.712991680043e-15
   197   -1.018198233569e-14
   198   -1.565337253529e-15
   199   -1.898709967678e-14
   200   -7.628268184893e-02
   201    7.387861420759e-15
   202    1.141001984182e-14
   203   -3.762125930342e-15
   204   -1.224206284734e-01
   205   -1.120032760843e-14
   206   -4.771831890014e-13
   207   -1.611866558543e-13
   208   -2.180335254061e-01
   209    2.156474306929e-11
   210    2.811932760403e-11
   211    1.842878462834e-11
   212   -2.113637950730e-01
   213    1.485054277827e-12
   214    2.671750896152e-12
   215   -3.281455269929e-12
   216   -6.007860040833e-02
   217   -2.746824147502e-15
   218    3.327037446309e-02
   219    2.405767934657e-02
   220    6.114123114187e-16
   221    1.799097852390e-15
   222   -5.101834967712e-15
   223    8.613785878296e-14
   224   -5.511542699223e-14
   225   -9.249376499243e-13
   226    1.776683200367e-15
   227    1.629322957723e-14
   228   -7.817684519757e-03
Sym=X
Ene= 0.182286
Spin=Alpha
Occup=0
     1    4.319033756677e-15
     2   -9.544544399647e-14
     3    9.410371169988e-13
     4    9.408256411387e-12
     5    1.802232796852e-15
     6   -9.495888408108e-15
     7   -1.235385378918e-10
     8    2.749238692184e-16
     9   -2.008642763102e-16
    10    6.862685083105e-17
    11   -1.296792568221e-15
    12    2.981322185593e-15
    13    8.368483380692e-15
    14   -1.128743288551e-14
    15    1.036384567960e-14
    16    6.570445933343e-15
    17   -2.320669584997e-09
    18   -9.273083591550e-15
    19    1.776105470117e-14
    20   -2.218136065473e-16
    21   -3.527325772945e-09
    22    8.398626986243e-14
    23   -6.298456565163e-14
    24    4.508271738064e-13
    25   -9.282330214749e-09
    26    2.227358179876e-12
    27   -8.513736274868e-12
    28   -1.769326404406e-11
    29    3.071793603741e-08
    30    1.226011206218e-13
    31   -2.906144598388e-12
    32   -1.129873858794e-12
    33   -1.088010573407e-07
    34   -4.083157800645e-15
    35   -4.276622139565e-10
    36   -4.686850840605e-02
    37    2.178387994652e-15
    38   -1.784827618209e-16
    39    7.683866765153e-17
    40   -4.185759115282e-16
    41    1.658381848723e-16
    42    7.627084255691e-16
    43   -1.087324007973e-14
    44   -2.974739633942e-14
    45    1.965638726456e-14
    46    1.562110795663e-14
    47    1.465038079539e-14
    48   -1.308484513501e-01
    49    1.014820387561e-13
    50    2.195811877705e-14
    51    6.852358851341e-15
    52   -2.109421308363e-01
    53   -9.795310619463e-13
    54   -3.725669729788e-15
    55    2.127605454102e-13
    56   -3.782982769078e-01
    57    4.118773980212e-11
    58    1.421150163832e-12
    59   -1.252976057250e-11
    60   -3.720465387697e-01
    61    1.657927673551e-12