[Molden Format]
[Atoms] (Angs)
  H      1    1      2.47503475      0.00000000     -0.00000000
  C      2    6      1.39359294      0.00000000     -0.00000000
  C      3    6      0.69679647      1.20688689      0.00000000
  H      4    1      1.23751738      2.14344297      0.00000000
  C      5    6     -0.69679647      1.20688689      0.00000000
  H      6    1     -1.23751738      2.14344297      0.00000000
  C      7    6     -1.39359294     -0.00000000      0.00000000
  H      8    1     -2.47503475     -0.00000000      0.00000000
  C      9    6     -0.69679647     -1.20688689     -0.00000000
  H     10    1     -1.23751738     -2.14344297     -0.00000000
  C     11    6      0.69679647     -1.20688689     -0.00000000
  H     12    1      1.23751738     -2.14344297     -0.00000000
[GTO]
1    0
S    3    1.000000
   3.38650000E+01    2.54938000E-02 
   5.09479000E+00    1.90373000E-01 
   1.15879000E+00    8.52161000E-01 
S    1    1.000000
   3.25840000E-01    1.00000000E+00 
S    1    1.000000
   1.02741000E-01    1.00000000E+00 
S    1    1.000000
   3.60000000E-02    1.00000000E+00 
P    1    1.000000
   7.50000000E-01    1.00000000E+00 

2    0
S    1    1.000000
   4.56324000E+03    1.96665000E-03 
S    1    1.000000
   6.82024000E+02    1.52306000E-02 
S    1    1.000000
   1.54973000E+02    7.61269000E-02 
S    1    1.000000
   4.44553000E+01    2.60801000E-01 
S    1    1.000000
   1.30290000E+01    6.16462000E-01 
S    1    1.000000
   1.82773000E+00    2.21006000E-01 
SP   3    1.000000
   2.09642000E+01    1.14660000E-01   4.02487000E-02 
   4.80331000E+00    9.19999000E-01   2.37594000E-01 
   1.45933000E+00   -3.03068000E-03   8.15854000E-01 
SP   1    1.000000
   4.83456000E-01    1.00000000E+00   1.00000000E+00 
SP   1    1.000000
   1.45585000E-01    1.00000000E+00   1.00000000E+00 
SP   1    1.000000
   4.38000000E-02    1.00000000E+00   1.00000000E+00 
SP   1    1.000000
   1.31927711E-02    1.00000000E+00   1.00000000E+00 
D    1    1.000000
   6.26000000E-01    1.00000000E+00 

3    0
S    1    1.000000
   4.56324000E+03    1.96665000E-03 
S    1    1.000000
   6.82024000E+02    1.52306000E-02 
S    1    1.000000
   1.54973000E+02    7.61269000E-02 
S    1    1.000000
   4.44553000E+01    2.60801000E-01 
S    1    1.000000
   1.30290000E+01    6.16462000E-01 
S    1    1.000000
   1.82773000E+00    2.21006000E-01 
SP   3    1.000000
   2.09642000E+01    1.14660000E-01   4.02487000E-02 
   4.80331000E+00    9.19999000E-01   2.37594000E-01 
   1.45933000E+00   -3.03068000E-03   8.15854000E-01 
SP   1    1.000000
   4.83456000E-01    1.00000000E+00   1.00000000E+00 
SP   1    1.000000
   1.45585000E-01    1.00000000E+00   1.00000000E+00 
SP   1    1.000000
   4.38000000E-02    1.00000000E+00   1.00000000E+00 
SP   1    1.000000
   1.31927711E-02    1.00000000E+00   1.00000000E+00 
D    1    1.000000
   6.26000000E-01    1.00000000E+00 

4    0
S    3    1.000000
   3.38650000E+01    2.54938000E-02 
   5.09479000E+00    1.90373000E-01 
   1.15879000E+00    8.52161000E-01 
S    1    1.000000
   3.25840000E-01    1.00000000E+00 
S    1    1.000000
   1.02741000E-01    1.00000000E+00 
S    1    1.000000
   3.60000000E-02    1.00000000E+00 
P    1    1.000000
   7.50000000E-01    1.00000000E+00 

5    0
S    1    1.000000
   4.56324000E+03    1.96665000E-03 
S    1    1.000000
   6.82024000E+02    1.52306000E-02 
S    1    1.000000
   1.54973000E+02    7.61269000E-02 
S    1    1.000000
   4.44553000E+01    2.60801000E-01 
S    1    1.000000
   1.30290000E+01    6.16462000E-01 
S    1    1.000000
   1.82773000E+00    2.21006000E-01 
SP   3    1.000000
   2.09642000E+01    1.14660000E-01   4.02487000E-02 
   4.80331000E+00    9.19999000E-01   2.37594000E-01 
   1.45933000E+00   -3.03068000E-03   8.15854000E-01 
SP   1    1.000000
   4.83456000E-01    1.00000000E+00   1.00000000E+00 
SP   1    1.000000
   1.45585000E-01    1.00000000E+00   1.00000000E+00 
SP   1    1.000000
   4.38000000E-02    1.00000000E+00   1.00000000E+00 
SP   1    1.000000
   1.31927711E-02    1.00000000E+00   1.00000000E+00 
D    1    1.000000
   6.26000000E-01    1.00000000E+00 

6    0
S    3    1.000000
   3.38650000E+01    2.54938000E-02 
   5.09479000E+00    1.90373000E-01 
   1.15879000E+00    8.52161000E-01 
S    1    1.000000
   3.25840000E-01    1.00000000E+00 
S    1    1.000000
   1.02741000E-01    1.00000000E+00 
S    1    1.000000
   3.60000000E-02    1.00000000E+00 
P    1    1.000000
   7.50000000E-01    1.00000000E+00 

7    0
S    1    1.000000
   4.56324000E+03    1.96665000E-03 
S    1    1.000000
   6.82024000E+02    1.52306000E-02 
S    1    1.000000
   1.54973000E+02    7.61269000E-02 
S    1    1.000000
   4.44553000E+01    2.60801000E-01 
S    1    1.000000
   1.30290000E+01    6.16462000E-01 
S    1    1.000000
   1.82773000E+00    2.21006000E-01 
SP   3    1.000000
   2.09642000E+01    1.14660000E-01   4.02487000E-02 
   4.80331000E+00    9.19999000E-01   2.37594000E-01 
   1.45933000E+00   -3.03068000E-03   8.15854000E-01 
SP   1    1.000000
   4.83456000E-01    1.00000000E+00   1.00000000E+00 
SP   1    1.000000
   1.45585000E-01    1.00000000E+00   1.00000000E+00 
SP   1    1.000000
   4.38000000E-02    1.00000000E+00   1.00000000E+00 
SP   1    1.000000
   1.31927711E-02    1.00000000E+00   1.00000000E+00 
D    1    1.000000
   6.26000000E-01    1.00000000E+00 

8    0
S    3    1.000000
   3.38650000E+01    2.54938000E-02 
   5.09479000E+00    1.90373000E-01 
   1.15879000E+00    8.52161000E-01 
S    1    1.000000
   3.25840000E-01    1.00000000E+00 
S    1    1.000000
   1.02741000E-01    1.00000000E+00 
S    1    1.000000
   3.60000000E-02    1.00000000E+00 
P    1    1.000000
   7.50000000E-01    1.00000000E+00 

9    0
S    1    1.000000
   4.56324000E+03    1.96665000E-03 
S    1    1.000000
   6.82024000E+02    1.52306000E-02 
S    1    1.000000
   1.54973000E+02    7.61269000E-02 
S    1    1.000000
   4.44553000E+01    2.60801000E-01 
S    1    1.000000
   1.30290000E+01    6.16462000E-01 
S    1    1.000000
   1.82773000E+00    2.21006000E-01 
SP   3    1.000000
   2.09642000E+01    1.14660000E-01   4.02487000E-02 
   4.80331000E+00    9.19999000E-01   2.37594000E-01 
   1.45933000E+00   -3.03068000E-03   8.15854000E-01 
SP   1    1.000000
   4.83456000E-01    1.00000000E+00   1.00000000E+00 
SP   1    1.000000
   1.45585000E-01    1.00000000E+00   1.00000000E+00 
SP   1    1.000000
   4.38000000E-02    1.00000000E+00   1.00000000E+00 
SP   1    1.000000
   1.31927711E-02    1.00000000E+00   1.00000000E+00 
D    1    1.000000
   6.26000000E-01    1.00000000E+00 

10    0
S    3    1.000000
   3.38650000E+01    2.54938000E-02 
   5.09479000E+00    1.90373000E-01 
   1.15879000E+00    8.52161000E-01 
S    1    1.000000
   3.25840000E-01    1.00000000E+00 
S    1    1.000000
   1.02741000E-01    1.00000000E+00 
S    1    1.000000
   3.60000000E-02    1.00000000E+00 
P    1    1.000000
   7.50000000E-01    1.00000000E+00 

11    0
S    1    1.000000
   4.56324000E+03    1.96665000E-03 
S    1    1.000000
   6.82024000E+02    1.52306000E-02 
S    1    1.000000
   1.54973000E+02    7.61269000E-02 
S    1    1.000000
   4.44553000E+01    2.60801000E-01 
S    1    1.000000
   1.30290000E+01    6.16462000E-01 
S    1    1.000000
   1.82773000E+00    2.21006000E-01 
SP   3    1.000000
   2.09642000E+01    1.14660000E-01   4.02487000E-02 
   4.80331000E+00    9.19999000E-01   2.37594000E-01 
   1.45933000E+00   -3.03068000E-03   8.15854000E-01 
SP   1    1.000000
   4.83456000E-01    1.00000000E+00   1.00000000E+00 
SP   1    1.000000
   1.45585000E-01    1.00000000E+00   1.00000000E+00 
SP   1    1.000000
   4.38000000E-02    1.00000000E+00   1.00000000E+00 
SP   1    1.000000
   1.31927711E-02    1.00000000E+00   1.00000000E+00 
D    1    1.000000
   6.26000000E-01    1.00000000E+00 

12    0
S    3    1.000000
   3.38650000E+01    2.54938000E-02 
   5.09479000E+00    1.90373000E-01 
   1.15879000E+00    8.52161000E-01 
S    1    1.000000
   3.25840000E-01    1.00000000E+00 
S    1    1.000000
   1.02741000E-01    1.00000000E+00 
S    1    1.000000
   3.60000000E-02    1.00000000E+00 
P    1    1.000000
   7.50000000E-01    1.00000000E+00 

[MO]
Sym=X
Ene= -0.026493
Spin=Alpha
Occup=1
     1   -3.391876819038e-10
     2   -1.127095038519e-09
     3    2.052319294646e-09
     4   -3.261635154100e-10
     5    8.030887018411e-10
     6    2.942378403078e-05
     7    8.675535841735e-16
     8    3.938070430150e-11
     9    3.051596739584e-10
    10    1.521258530416e-09
    11    5.234150950442e-09
    12    1.234253630960e-08
    13    5.407184831672e-09
    14    1.692215971843e-08
    15    4.497398859285e-10
    16    1.198917793056e-04
    17    1.651278067166e-16
    18   -4.831516260125e-09
    19    3.553284060966e-09
    20    4.141522351960e-04
    21   -1.349987896685e-15
    22    4.014698833961e-09
    23   -2.413362168895e-09
    24   -1.364688063720e-04
    25   -8.849916638737e-16
    26   -5.971478616670e-09
    27    6.321267174198e-10
    28    1.580772454359e-04
    29    6.371541948324e-15
    30   -1.698745827865e-10
    31    5.354175547000e-10
    32   -1.362948311719e-04
    33   -1.305847019115e-13
    34    1.894656347968e-10
    35   -3.452334189004e-16
    36    1.087270484456e-15
    37    1.578392530819e-09
    38   -2.238848040700e-04
    39    5.547102527289e-04
    40    4.294430628459e-03
    41    2.142193165751e-02
    42    7.355126907180e-02
    43    1.737393870921e-01
    44    6.347052529453e-02
    45    2.326613274197e-01
    46    9.105412313603e-05
    47    3.781743704917e-05
    48    1.470710467900e-15
    49    6.373375610585e-04
    50    2.080523515104e-04
    51   -5.379878843345e-05
    52   -8.197752761012e-16
    53    7.075119342515e-04
    54   -2.110516856426e-04
    55   -2.290822258615e-04
    56   -2.698774800428e-15
    57   -7.827471297481e-04
    58    1.372235974515e-04
    59    7.959970167146e-05
    60   -1.194832408730e-14
    61   -5.385398835898e-05
    62    6.587879987106e-06
    63    1.477066142970e-04
    64    1.239601796391e-13
    65   -7.270503543274e-05
    66   -7.626511818917e-16
    67    1.687704174420e-15
    68   -1.083514922228e-04
    69   -3.621658176623e-05
    70    1.862608085546e-04
    71    2.044936002279e-04
    72    5.104074040039e-05
    73   -6.571667754916e-05
    74   -5.787909238949e-05
    75   -1.296735892026e-04
    76    3.730900408488e-16
    77   -5.547204131966e-04
    78   -4.294509287729e-03
    79   -2.142232403582e-02
    80   -7.355261626270e-02
    81   -1.737425694061e-01
    82   -6.347168614693e-02
    83   -2.326655881736e-01
    84    9.105339963845e-05
    85   -3.781846310727e-05
    86    2.445534812639e-16
    87   -6.373590474344e-04
    88    2.080460549378e-04
    89    5.380214143027e-05
    90   -1.834825581127e-15
    91   -7.075171613989e-04
    92   -2.110510742009e-04
    93    2.290836512795e-04
    94   -1.489239430885e-15
    95    7.827494633073e-04
    96    1.372229371102e-04
    97   -7.960144459620e-05
    98    2.357251830030e-14
    99    5.385462689621e-05
   100    6.589605273568e-06
   101   -1.477071322601e-04
   102   -1.697171241561e-13
   103    7.270676440030e-05
   104    2.686256770682e-16
   105    9.649539933592e-16
   106    1.083483429561e-04
   107   -3.621792878473e-05
   108   -1.862649264173e-04
   109   -2.044996455427e-04
   110   -5.103763312663e-05
   111    6.571718731490e-05
   112   -5.788143343941e-05
   113    1.296771031261e-04
   114    2.529300216224e-16
   115   -3.496581263041e-11
   116   -2.704173140795e-10
   117   -1.349897253133e-09
   118   -4.623805609075e-09
   119   -1.094379564406e-08
   120   -3.100394461852e-09
   121   -1.426072747605e-08
   122   -4.375336276823e-10
   123   -1.198917796604e-04
   124   -8.816633862689e-16
   125   -4.910234354209e-09
   126   -3.554138064170e-09
   127   -4.141522384081e-04
   128   -3.974722608462e-15
   129    3.737944487999e-09
   130    2.267766876202e-09
   131    1.364688085173e-04
   132    4.275878161764e-15
   133   -5.930826914661e-09
   134   -6.458972256183e-10
   135   -1.580772475634e-04
   136   -3.682870606661e-14
   137   -1.682200629985e-10
   138   -5.305271525914e-10
   139    1.362948314778e-04
   140    2.288168566007e-13
   141    1.996398901907e-10
   142    2.325208879974e-16
   143    4.489816412726e-17
   144    1.573167371509e-09
   145   -2.238848059134e-04
   146   -3.631616425271e-10
   147   -1.169142486311e-09
   148    2.018679875876e-09
   149   -3.289396768948e-10
   150   -8.235802841002e-10
   151   -2.942378428594e-05
   152   -5.249264304953e-16
   153    5.547102929562e-04
   154    4.294430939885e-03
   155    2.142193321098e-02
   156    7.355127440574e-02
   157    1.737393996903e-01
   158    6.347052989686e-02
   159    2.326613442979e-01
   160   -9.105412675099e-05
   161   -3.781744883293e-05
   162   -1.888135026149e-15
   163    6.373375836352e-04
   164   -2.080523340369e-04
   165    5.379876872681e-05
   166    2.802674273422e-15
   167    7.075121738941e-04
   168    2.110517399620e-04
   169    2.290823532779e-04
   170   -8.180028638562e-15
   171   -7.827471333269e-04
   172   -1.372235729805e-04
   173   -7.959969143142e-05
   174    3.188820258344e-14
   175   -5.385398783275e-05
   176   -6.587882197278e-06
   177   -1.477066141086e-04
   178   -2.341232955903e-13
   179   -7.270503986167e-05
   180   -8.255338928303e-16
   181   -1.578483219812e-15
   182   -1.083514859169e-04
   183   -3.621656406200e-05
   184    1.862608196780e-04
   185    2.044936267231e-04
   186    5.104077849714e-05
   187   -6.571666676185e-05
   188    5.787909848722e-05
   189    1.296735953632e-04
   190    1.247144204351e-16
   191   -5.547204483496e-04
   192   -4.294509559884e-03
   193   -2.142232539338e-02
   194   -7.355262092403e-02
   195   -1.737425804153e-01
   196   -6.347169016884e-02
   197   -2.326656029251e-01
   198   -9.105340354802e-05
   199    3.781847464624e-05
   200   -9.021389723786e-16
   201   -6.373590616002e-04
   202   -2.080460409452e-04
   203   -5.380212212000e-05
   204    3.609037569804e-16
   205   -7.075173954716e-04
   206    2.110511297889e-04
   207   -2.290837766102e-04
   208    2.314218601296e-15
   209    7.827494613974e-04
   210   -1.372229137861e-04
   211    7.960143209448e-05
   212   -1.601522852782e-14
   213    5.385462598558e-05
   214   -6.589606887383e-06
   215    1.477071316122e-04
   216    1.840236731591e-13
   217    7.270676796257e-05
   218   -9.822627194120e-16
   219    2.617161241513e-16
   220    1.083483387515e-04
   221   -3.621791113244e-05
   222   -1.862649356821e-04
   223   -2.044996697461e-04
   224   -5.103767198696e-05
   225    6.571717496253e-05
   226    5.788143838962e-05
   227   -1.296771078139e-04
   228   -6.663945540593e-16
Sym=X
Ene= -0.032020
Spin=Alpha
Occup=1
     1    1.783324231165e-06
     2    1.044815382106e-04
     3    3.303432404948e-04
     4    1.395363646083e-04
     5    1.595217440154e-05
     6    5.579413346535e-10
     7    1.755937802260e-16
     8    8.862984838883e-05
     9    6.862504434570e-04
    10    3.422616092855e-03
    11    1.175445873229e-02
    12    2.774354687356e-02
    13    1.013354740966e-02
    14    3.726673223295e-02
    15    9.391591886567e-05
    16    6.788735033332e-10
    17    4.784218490889e-16
    18   -2.000072609962e-04
    19    1.288634340988e-04
    20    6.302750532590e-09
    21   -9.633664744062e-16
    22    1.646658775517e-03
    23   -1.032836882715e-03
    24   -4.196934304991e-09
    25   -4.655308803083e-15
    26    2.480595994054e-04
    27   -2.154163776804e-04
    28    4.292435706117e-09
    29    1.360735198778e-14
    30    2.001248853137e-05
    31   -1.944317284002e-05
    32   -4.891066870622e-10
    33    2.104848858200e-13
    34    3.888317377486e-06
    35    5.975484856303e-16
    36   -3.150083210893e-16
    37    1.440440953857e-04
    38   -3.608385843649e-09
    39   -5.511882573595e-04
    40   -4.267162190386e-03
    41   -2.128593538913e-02
    42   -7.308426991041e-02
    43   -1.726365603607e-01
    44   -6.307160313850e-02
    45   -2.311886708249e-01
    46   -7.572154329563e-05
    47   -6.806995429718e-05
    48   -2.660607599290e-15
    49   -5.606963616827e-04
    50   -2.579639770779e-04
    51    1.439812102557e-04
    52    2.967788127998e-15
    53   -2.148400158656e-03
    54    7.417918059233e-04
    55    8.918999291967e-04
    56    7.748732065601e-16
    57    2.897491026602e-04
    58   -1.164526823058e-04
    59    1.996241950635e-04
    60   -9.648441249966e-15
    61    1.094613672786e-05
    62    2.723509407617e-06
    63   -4.129790938731e-05
    64   -2.265579419644e-13
    65    7.396977639345e-05
    66   -3.659274243395e-16
    67   -1.335124454365e-15
    68    1.712026831681e-04
    69    4.122414689822e-05
    70   -1.756147255014e-04
    71   -3.156320694087e-04
    72   -2.707768808687e-04
    73   -2.807274768349e-05
    74    5.174208147947e-05
    75    1.417222799033e-04
    76    5.405124693710e-16
    77    5.511981705099e-04
    78    4.267238933370e-03
    79    2.128631822015e-02
    80    7.308558427620e-02
    81    1.726396655784e-01
    82    6.307273774654e-02
    83    2.311928267638e-01
    84   -7.572094270698e-05
    85    6.807034898717e-05
    86   -1.280183913784e-15
    87    5.607127258523e-04
    88   -2.579571777893e-04
    89   -1.439803616736e-04
    90    1.634995437125e-15
    91    2.148410889292e-03
    92    7.417893608281e-04
    93   -8.919040881310e-04
    94   -4.666176932266e-15
    95   -2.897606397916e-04
    96   -1.164500235881e-04
    97   -1.996201977831e-04
    98    1.421983256842e-14
    99   -1.094680100697e-05
   100    2.722506519291e-06
   101    4.129866337889e-05
   102    2.071771560438e-13
   103   -7.397144815104e-05
   104   -3.586601300863e-16
   105   -6.957951931927e-16
   106   -1.711985363114e-04
   107    4.122408662463e-05
   108    1.756184530179e-04
   109    3.156365931307e-04
   110    2.707756217865e-04
   111    2.807037921823e-05
   112    5.174432870256e-05
   113   -1.417250539711e-04
   114    5.084861627160e-16
   115   -8.862985340913e-05
   116   -6.862504823133e-04
   117   -3.422616286709e-03
   118   -1.175445939786e-02
   119   -2.774354844573e-02
   120   -1.013354798470e-02
   121   -3.726673433863e-02
   122    9.391591991320e-05
   123    6.882658894182e-10
   124    8.810438791753e-16
   125    2.000072589764e-04
   126    1.288634373333e-04
   127    6.335175071699e-09
   128   -2.482092562011e-15
   129   -1.646658784954e-03
   130   -1.032836887094e-03
   131   -4.208103673245e-09
   132    7.766487274725e-15
   133   -2.480595815842e-04
   134   -2.154163732207e-04
   135    4.316700331439e-09
   136   -2.115731388337e-14
   137   -2.001248734303e-05
   138   -1.944317060726e-05
   139   -4.996850731687e-10
   140   -1.758420286166e-13
   141   -3.888316872333e-06
   142   -4.938546718293e-19
   143   -5.551731418652e-16
   144   -1.440440967929e-04
   145    3.625902280405e-09
   146   -1.783325648661e-06
   147   -1.044815391667e-04
   148   -3.303432422347e-04
   149   -1.395363622638e-04
   150    1.595217374205e-05
   151    5.602451802813e-10
   152   -9.143035714160e-18
   153    5.511882203935e-04
   154    4.267161904200e-03
   155    2.128593396155e-02
   156    7.308426500885e-02
   157    1.726365487825e-01
   158    6.307159890791e-02
   159    2.311886553198e-01
   160   -7.572153531612e-05
   161   -6.806995248746e-05
   162   -1.820309062443e-15
   163    5.606963228382e-04
   164   -2.579639561554e-04
   165    1.439812057379e-04
   166    1.399225853609e-15
   167    2.148400108667e-03
   168    7.417917894991e-04
   169    8.918999131314e-04
   170   -5.924358077366e-15
   171   -2.897490493040e-04
   172   -1.164526815164e-04
   173    1.996242042914e-04
   174    2.388393360668e-14
   175   -1.094613331603e-05
   176    2.723507512262e-06
   177   -4.129789790152e-05
   178    1.590186918084e-13
   179   -7.396977170030e-05
   180    2.854718483086e-16
   181    1.541220266910e-16
   182   -1.712026722236e-04
   183   -4.122414374303e-05
   184    1.756147133564e-04
   185    3.156320566346e-04
   186    2.707768758007e-04
   187    2.807275172812e-05
   188    5.174207832942e-05
   189    1.417222715692e-04
   190    5.234416025627e-16
   191   -5.511981207455e-04
   192   -4.267238548109e-03
   193   -2.128631629833e-02
   194   -7.308557767775e-02
   195   -1.726396499918e-01
   196   -6.307273205298e-02
   197   -2.311928058916e-01
   198   -7.572093631408e-05
   199    6.807034495868e-05
   200    1.754021262909e-16
   201   -5.607126648573e-04
   202   -2.579571663095e-04
   203   -1.439803578324e-04
   204   -1.688476654003e-15
   205   -2.148410828781e-03
   206    7.417893451982e-04
   207   -8.919040678277e-04
   208    6.402012413927e-15
   209    2.897605711464e-04
   210   -1.164500236514e-04
   211   -1.996202130219e-04
   212   -2.113228593425e-14
   213    1.094679602781e-05
   214    2.722509081824e-06
   215    4.129865123403e-05
   216   -1.750766236883e-13
   217    7.397144148200e-05
   218    6.340770519929e-17
   219    2.907915691832e-16
   220    1.711985303217e-04
   221   -4.122408413491e-05
   222   -1.756184360406e-04
   223   -3.156365738947e-04
   224   -2.707756189083e-04
   225   -2.807038552462e-05
   226    5.174432277349e-05
   227   -1.417250420377e-04
   228    2.697054178630e-16
Sym=X
Ene= -0.087799
Spin=Alpha
Occup=1
     1    5.607254508761e-05
     2    1.483183398133e-04
     3   -2.262022948126e-04
     4    3.328600783236e-05
     5   -1.046327197005e-04
     6    2.659162701177e-10
     7    3.219754011934e-17
     8    4.776236279803e-05
     9    3.697327031513e-04
    10    1.844449039497e-03
    11    6.331591858356e-03
    12    1.495857925904e-02
    13    5.362342051263e-03
    14    1.998702917112e-02
    15   -4.361633328009e-05
    16    1.094495589680e-09
    17   -3.844503188843e-16
    18    6.092259164052e-04
    19   -3.991395077716e-04
    20    3.762233274123e-09
    21   -1.061960993913e-15
    22   -3.783995680579e-04
    23    2.384410646813e-04
    24   -1.237138553395e-09
    25    1.041837789747e-15
    26    6.127047199517e-04
    27   -6.312900318390e-05
    28    1.473161065748e-09
    29   -7.305323717571e-15
    30    1.492858458565e-05
    31   -5.033044273775e-05
    32   -1.237510203443e-09
    33    1.282842796700e-13
    34   -2.865851062695e-05
    35   -7.942550527447e-16
    36   -8.486628658822e-16
    37   -1.773636193779e-04
    38   -2.032110872983e-09
    39    5.535003080722e-04
    40    4.285031746817e-03
    41    2.137515655169e-02
    42    7.338942521106e-02
    43    1.733594745079e-01
    44    6.322940404402e-02
    45    2.321079714083e-01
    46   -3.345475710152e-05
    47    5.135861090144e-05
    48    1.523378366844e-15
    49    1.190300888170e-03
    50   -3.368852247140e-04
    51   -2.059243402393e-04
    52   -1.656411472020e-15
    53    2.666466307953e-04
    54    3.455288485406e-05
    55   -6.456974758341e-05
    56    4.447999431779e-16
    57   -1.009326068756e-04
    58   -3.126744936099e-05
    59    8.996048003131e-05
    60    4.795047175389e-15
    61   -3.417078413579e-05
    62    8.845389112965e-05
    63    2.894812003704e-05
    64   -1.401075798356e-13
    65   -9.494500074717e-05
    66    9.772733896777e-16
    67   -5.064226689251e-16
    68    1.666674735762e-04
    69   -8.456327882913e-05
    70    2.258897366563e-04
    71    3.347593952604e-04
    72   -1.796695089530e-04
    73   -2.662863118955e-05
    74   -1.283178666459e-04
    75   -1.954277389017e-04
    76   -2.000950875881e-16
    77    5.534901592200e-04
    78    4.284953176883e-03
    79    2.137476462079e-02
    80    7.338807953225e-02
    81    1.733562958093e-01
    82    6.322824289452e-02
    83    2.321037146595e-01
    84    3.345646903368e-05
    85    5.135792162177e-05
    86   -4.972029838969e-16
    87    1.190289275452e-03
    88    3.368889941141e-04
    89   -2.059233562601e-04
    90   -9.396330010572e-16
    91    2.666336594985e-04
    92   -3.455672602225e-05
    93   -6.456554151567e-05
    94    2.444336178848e-17
    95   -1.009180183023e-04
    96    3.126994612833e-05
    97    8.995886966516e-05
    98   -6.201765430103e-15
    99   -3.416977286489e-05
   100   -8.845376887353e-05
   101    2.894542260545e-05
   102    1.526169858809e-13
   103   -9.494367020868e-05
   104    3.848494701902e-16
   105    4.596363317790e-16
   106    1.666694512556e-04
   107    8.456261601358e-05
   108    2.258863305264e-04
   109    3.347556446277e-04
   110   -1.796704220735e-04
   111   -2.662737223478e-05
   112    1.283168068357e-04
   113   -1.954253636281e-04
   114   -6.608526147495e-16
   115    4.776235757960e-05
   116    3.697326627574e-04
   117    1.844448837981e-03
   118    6.331591166528e-03
   119    1.495857762438e-02
   120    5.362341454019e-03
   121    1.998702698426e-02
   122    4.361633267912e-05
   123   -1.100500200037e-09
   124   -9.263794848387e-16
   125    6.092259054315e-04
   126    3.991395053837e-04
   127   -3.818369361774e-09
   128    1.029660035496e-15
   129   -3.783995624630e-04
   130   -2.384410586455e-04
   131    1.274583290614e-09
   132    4.136220991903e-16
   133    6.127047341995e-04
   134    6.312900432432e-05
   135   -1.512823459758e-09
   136    4.619298190298e-16
   137    1.492858525454e-05
   138    5.033044318082e-05
   139    1.241793981128e-09
   140   -1.384250505527e-13
   141   -2.865850962349e-05
   142    3.007253941500e-16
   143   -9.117537612645e-16
   144   -1.773636172448e-04
   145   -2.064212855706e-09
   146    5.607254288815e-05
   147    1.483183380575e-04
   148   -2.262022922662e-04
   149    3.328600842355e-05
   150    1.046327175474e-04
   151   -2.708761049010e-10
   152    2.900795910827e-16
   153    5.535003454246e-04
   154    4.285032035986e-03
   155    2.137515799419e-02
   156    7.338943016356e-02
   157    1.733594862085e-01
   158    6.322940831882e-02
   159    2.321079870673e-01
   160    3.345476065216e-05
   161   -5.135861249932e-05
   162   -1.731025395545e-15
   163    1.190300951870e-03
   164    3.368852610992e-04
   165    2.059243320096e-04
   166    2.681806507532e-15
   167    2.666466601643e-04
   168   -3.455290468702e-05
   169    6.456976086148e-05
   170   -4.400508885732e-15
   171   -1.009326525362e-04
   172    3.126746848335e-05
   173   -8.996050194634e-05
   174    1.486110782416e-15
   175   -3.417078680521e-05
   176   -8.845389553735e-05
   177   -2.894812253460e-05
   178    1.271707871325e-13
   179   -9.494500716760e-05
   180    6.691167149852e-17
   181   -2.932177780463e-16
   182    1.666674955750e-04
   183   -8.456327615848e-05
   184    2.258897509142e-04
   185    3.347594117444e-04
   186   -1.796695161006e-04
   187   -2.662864080302e-05
   188    1.283178761712e-04
   189    1.954277490988e-04
   190    1.166251367658e-15
   191    5.534902098293e-04
   192    4.284953568676e-03
   193    2.137476657524e-02
   194    7.338808624245e-02
   195    1.733563116621e-01
   196    6.322824868631e-02
   197    2.321037358776e-01
   198   -3.345647050227e-05
   199   -5.135792357578e-05
   200    7.230439007008e-16
   201    1.190289356217e-03
   202   -3.368890181643e-04
   203    2.059233569582e-04
   204   -1.556748271065e-16
   205    2.666337257320e-04
   206    3.455672808815e-05
   207    6.456556514934e-05
   208    5.086531812450e-16
   209   -1.009180797808e-04
   210   -3.126995180005e-05
   211   -8.995888408810e-05
   212    5.908205110815e-15
   213   -3.416977617116e-05
   214    8.845377318255e-05
   215   -2.894542672157e-05
   216   -1.291778691130e-13
   217   -9.494367861563e-05
   218   -1.537016104536e-15
   219   -2.314557888077e-16
   220    1.666694660301e-04
   221    8.456261814451e-05
   222    2.258863493312e-04
   223    3.347556682334e-04
   224   -1.796704261219e-04
   225   -2.662738372597e-05
   226   -1.283168172511e-04
   227    1.954253780478e-04
   228   -4.857855553978e-16
Sym=X
Ene= -0.659185
Spin=Alpha
Occup=1
     1   -2.796552530991e-10
     2    5.161974391598e-10
     3    2.882001848897e-09
     4    1.358160063145e-09
     5    4.124146158366e-10
     6   -6.246146465398e-05
     7    9.227278274282e-16
     8   -3.647908073336e-11
     9   -2.814166842646e-10
    10   -1.409916681282e-09
    11   -4.810297350216e-09
    12   -1.158491034492e-08
    13   -4.245358521377e-09
    14   -1.438069034656e-08
    15    7.793504192820e-10
    16   -7.562596368290e-05
    17    6.093032438784e-17
    18   -2.981344283717e-09
    19    1.304205640413e-09
    20   -7.082496766539e-04
    21   -2.710481761804e-16
    22    1.299196094190e-08
    23   -8.484754822908e-09
    24    4.710426453855e-04
    25    2.144984584461e-16
    26    2.881067564630e-09
    27   -1.985026663675e-09
    28   -4.811188329193e-04
    29    1.807367310981e-14
    30    2.170632836370e-10
    31   -2.512015879047e-10
    32    5.516399023897e-05
    33   -9.840092224393e-14
    34    1.654424981677e-10
    35   -8.772426285376e-16
    36    4.781619578624e-16
    37    1.369535895555e-09
    38    4.049092442435e-04
    39   -5.545421440084e-04
    40   -4.293006979444e-03
    41   -2.141559463415e-02
    42   -7.352577390237e-02
    43   -1.737062405932e-01
    44   -6.346524529778e-02
    45   -2.324849920165e-01
    46    3.101086341912e-05
    47   -2.191283648655e-05
    48    5.751822093472e-16
    49   -9.119732776264e-04
    50    3.813503269607e-04
    51   -4.772519158449e-05
    52   -1.490773845511e-15
    53   -6.015299606428e-04
    54   -1.377442102832e-04
    55    2.324584660493e-04
    56    2.862819208469e-15
    57    6.447537877535e-04
    58    1.479293781542e-04
    59   -2.248933797818e-04
    60   -1.581529267845e-14
    61    3.711480087898e-05