[Molden Format]
[Atoms] (Angs)
  H      1    1      2.47503475      0.00000000     -0.00000000
  C      2    6      1.39359294      0.00000000     -0.00000000
  C      3    6      0.69679647      1.20688689      0.00000000
  H      4    1      1.23751738      2.14344297      0.00000000
  C      5    6     -0.69679647      1.20688689      0.00000000
  H      6    1     -1.23751738      2.14344297      0.00000000
  C      7    6     -1.39359294     -0.00000000      0.00000000
  H      8    1     -2.47503475     -0.00000000      0.00000000
  C      9    6     -0.69679647     -1.20688689     -0.00000000
  H     10    1     -1.23751738     -2.14344297     -0.00000000
  C     11    6      0.69679647     -1.20688689     -0.00000000
  H     12    1      1.23751738     -2.14344297     -0.00000000
[GTO]
1    0
S    3    1.000000
   3.38650000E+01    2.54938000E-02 
   5.09479000E+00    1.90373000E-01 
   1.15879000E+00    8.52161000E-01 
S    1    1.000000
   3.25840000E-01    1.00000000E+00 
S    1    1.000000
   1.02741000E-01    1.00000000E+00 
S    1    1.000000
   3.60000000E-02    1.00000000E+00 
P    1    1.000000
   7.50000000E-01    1.00000000E+00 

2    0
S    1    1.000000
   4.56324000E+03    1.96665000E-03 
S    1    1.000000
   6.82024000E+02    1.52306000E-02 
S    1    1.000000
   1.54973000E+02    7.61269000E-02 
S    1    1.000000
   4.44553000E+01    2.60801000E-01 
S    1    1.000000
   1.30290000E+01    6.16462000E-01 
S    1    1.000000
   1.82773000E+00    2.21006000E-01 
SP   3    1.000000
   2.09642000E+01    1.14660000E-01   4.02487000E-02 
   4.80331000E+00    9.19999000E-01   2.37594000E-01 
   1.45933000E+00   -3.03068000E-03   8.15854000E-01 
SP   1    1.000000
   4.83456000E-01    1.00000000E+00   1.00000000E+00 
SP   1    1.000000
   1.45585000E-01    1.00000000E+00   1.00000000E+00 
SP   1    1.000000
   4.38000000E-02    1.00000000E+00   1.00000000E+00 
SP   1    1.000000
   1.31927711E-02    1.00000000E+00   1.00000000E+00 
D    1    1.000000
   6.26000000E-01    1.00000000E+00 

3    0
S    1    1.000000
   4.56324000E+03    1.96665000E-03 
S    1    1.000000
   6.82024000E+02    1.52306000E-02 
S    1    1.000000
   1.54973000E+02    7.61269000E-02 
S    1    1.000000
   4.44553000E+01    2.60801000E-01 
S    1    1.000000
   1.30290000E+01    6.16462000E-01 
S    1    1.000000
   1.82773000E+00    2.21006000E-01 
SP   3    1.000000
   2.09642000E+01    1.14660000E-01   4.02487000E-02 
   4.80331000E+00    9.19999000E-01   2.37594000E-01 
   1.45933000E+00   -3.03068000E-03   8.15854000E-01 
SP   1    1.000000
   4.83456000E-01    1.00000000E+00   1.00000000E+00 
SP   1    1.000000
   1.45585000E-01    1.00000000E+00   1.00000000E+00 
SP   1    1.000000
   4.38000000E-02    1.00000000E+00   1.00000000E+00 
SP   1    1.000000
   1.31927711E-02    1.00000000E+00   1.00000000E+00 
D    1    1.000000
   6.26000000E-01    1.00000000E+00 

4    0
S    3    1.000000
   3.38650000E+01    2.54938000E-02 
   5.09479000E+00    1.90373000E-01 
   1.15879000E+00    8.52161000E-01 
S    1    1.000000
   3.25840000E-01    1.00000000E+00 
S    1    1.000000
   1.02741000E-01    1.00000000E+00 
S    1    1.000000
   3.60000000E-02    1.00000000E+00 
P    1    1.000000
   7.50000000E-01    1.00000000E+00 

5    0
S    1    1.000000
   4.56324000E+03    1.96665000E-03 
S    1    1.000000
   6.82024000E+02    1.52306000E-02 
S    1    1.000000
   1.54973000E+02    7.61269000E-02 
S    1    1.000000
   4.44553000E+01    2.60801000E-01 
S    1    1.000000
   1.30290000E+01    6.16462000E-01 
S    1    1.000000
   1.82773000E+00    2.21006000E-01 
SP   3    1.000000
   2.09642000E+01    1.14660000E-01   4.02487000E-02 
   4.80331000E+00    9.19999000E-01   2.37594000E-01 
   1.45933000E+00   -3.03068000E-03   8.15854000E-01 
SP   1    1.000000
   4.83456000E-01    1.00000000E+00   1.00000000E+00 
SP   1    1.000000
   1.45585000E-01    1.00000000E+00   1.00000000E+00 
SP   1    1.000000
   4.38000000E-02    1.00000000E+00   1.00000000E+00 
SP   1    1.000000
   1.31927711E-02    1.00000000E+00   1.00000000E+00 
D    1    1.000000
   6.26000000E-01    1.00000000E+00 

6    0
S    3    1.000000
   3.38650000E+01    2.54938000E-02 
   5.09479000E+00    1.90373000E-01 
   1.15879000E+00    8.52161000E-01 
S    1    1.000000
   3.25840000E-01    1.00000000E+00 
S    1    1.000000
   1.02741000E-01    1.00000000E+00 
S    1    1.000000
   3.60000000E-02    1.00000000E+00 
P    1    1.000000
   7.50000000E-01    1.00000000E+00 

7    0
S    1    1.000000
   4.56324000E+03    1.96665000E-03 
S    1    1.000000
   6.82024000E+02    1.52306000E-02 
S    1    1.000000
   1.54973000E+02    7.61269000E-02 
S    1    1.000000
   4.44553000E+01    2.60801000E-01 
S    1    1.000000
   1.30290000E+01    6.16462000E-01 
S    1    1.000000
   1.82773000E+00    2.21006000E-01 
SP   3    1.000000
   2.09642000E+01    1.14660000E-01   4.02487000E-02 
   4.80331000E+00    9.19999000E-01   2.37594000E-01 
   1.45933000E+00   -3.03068000E-03   8.15854000E-01 
SP   1    1.000000
   4.83456000E-01    1.00000000E+00   1.00000000E+00 
SP   1    1.000000
   1.45585000E-01    1.00000000E+00   1.00000000E+00 
SP   1    1.000000
   4.38000000E-02    1.00000000E+00   1.00000000E+00 
SP   1    1.000000
   1.31927711E-02    1.00000000E+00   1.00000000E+00 
D    1    1.000000
   6.26000000E-01    1.00000000E+00 

8    0
S    3    1.000000
   3.38650000E+01    2.54938000E-02 
   5.09479000E+00    1.90373000E-01 
   1.15879000E+00    8.52161000E-01 
S    1    1.000000
   3.25840000E-01    1.00000000E+00 
S    1    1.000000
   1.02741000E-01    1.00000000E+00 
S    1    1.000000
   3.60000000E-02    1.00000000E+00 
P    1    1.000000
   7.50000000E-01    1.00000000E+00 

9    0
S    1    1.000000
   4.56324000E+03    1.96665000E-03 
S    1    1.000000
   6.82024000E+02    1.52306000E-02 
S    1    1.000000
   1.54973000E+02    7.61269000E-02 
S    1    1.000000
   4.44553000E+01    2.60801000E-01 
S    1    1.000000
   1.30290000E+01    6.16462000E-01 
S    1    1.000000
   1.82773000E+00    2.21006000E-01 
SP   3    1.000000
   2.09642000E+01    1.14660000E-01   4.02487000E-02 
   4.80331000E+00    9.19999000E-01   2.37594000E-01 
   1.45933000E+00   -3.03068000E-03   8.15854000E-01 
SP   1    1.000000
   4.83456000E-01    1.00000000E+00   1.00000000E+00 
SP   1    1.000000
   1.45585000E-01    1.00000000E+00   1.00000000E+00 
SP   1    1.000000
   4.38000000E-02    1.00000000E+00   1.00000000E+00 
SP   1    1.000000
   1.31927711E-02    1.00000000E+00   1.00000000E+00 
D    1    1.000000
   6.26000000E-01    1.00000000E+00 

10    0
S    3    1.000000
   3.38650000E+01    2.54938000E-02 
   5.09479000E+00    1.90373000E-01 
   1.15879000E+00    8.52161000E-01 
S    1    1.000000
   3.25840000E-01    1.00000000E+00 
S    1    1.000000
   1.02741000E-01    1.00000000E+00 
S    1    1.000000
   3.60000000E-02    1.00000000E+00 
P    1    1.000000
   7.50000000E-01    1.00000000E+00 

11    0
S    1    1.000000
   4.56324000E+03    1.96665000E-03 
S    1    1.000000
   6.82024000E+02    1.52306000E-02 
S    1    1.000000
   1.54973000E+02    7.61269000E-02 
S    1    1.000000
   4.44553000E+01    2.60801000E-01 
S    1    1.000000
   1.30290000E+01    6.16462000E-01 
S    1    1.000000
   1.82773000E+00    2.21006000E-01 
SP   3    1.000000
   2.09642000E+01    1.14660000E-01   4.02487000E-02 
   4.80331000E+00    9.19999000E-01   2.37594000E-01 
   1.45933000E+00   -3.03068000E-03   8.15854000E-01 
SP   1    1.000000
   4.83456000E-01    1.00000000E+00   1.00000000E+00 
SP   1    1.000000
   1.45585000E-01    1.00000000E+00   1.00000000E+00 
SP   1    1.000000
   4.38000000E-02    1.00000000E+00   1.00000000E+00 
SP   1    1.000000
   1.31927711E-02    1.00000000E+00   1.00000000E+00 
D    1    1.000000
   6.26000000E-01    1.00000000E+00 

12    0
S    3    1.000000
   3.38650000E+01    2.54938000E-02 
   5.09479000E+00    1.90373000E-01 
   1.15879000E+00    8.52161000E-01 
S    1    1.000000
   3.25840000E-01    1.00000000E+00 
S    1    1.000000
   1.02741000E-01    1.00000000E+00 
S    1    1.000000
   3.60000000E-02    1.00000000E+00 
P    1    1.000000
   7.50000000E-01    1.00000000E+00 

[MO]
Sym=X
Ene= -0.005478
Spin=Alpha
Occup=1
     1   -2.150784247337e-04
     2   -2.361332591678e-04
     3   -5.893449608030e-05
     4    7.588310517440e-05
     5    1.630931693640e-04
     6    1.558439075303e-10
     7   -2.827476728391e-16
     8   -6.405314800758e-04
     9   -4.958837506177e-03
    10   -2.473619609999e-02
    11   -8.493065162830e-02
    12   -2.006192353685e-01
    13   -7.329027829350e-02
    14   -2.686572013073e-01
    15   -9.038771696728e-05
    16    5.866080699860e-10
    17   -2.520210891025e-15
    18   -7.359500146619e-04
    19   -6.631572845572e-05
    20    2.240509177333e-09
    21    2.945446562990e-15
    22   -8.169677276503e-04
    23    3.509335252951e-04
    24   -7.593767829394e-10
    25   -7.916644139593e-15
    26    9.038382367407e-04
    27   -1.588258945483e-04
    28    9.364173091156e-10
    29    1.748013689887e-14
    30    6.218554143140e-05
    31   -1.515109719844e-04
    32   -7.280393989256e-10
    33    2.616013578958e-13
    34    8.395378712858e-05
    35   -3.687830678316e-16
    36    3.481196583156e-17
    37   -2.633808016728e-05
    38   -1.195637691585e-09
    39    3.202666412794e-04
    40    2.479425730431e-03
    41    1.236813285473e-02
    42    4.246544532082e-02
    43    1.003098999672e-01
    44    3.664524276556e-02
    45    1.343289789224e-01
    46   -6.732137481866e-05
    47    9.105394587084e-05
    48    1.652501418559e-15
    49    3.679730273526e-04
    50   -2.940332657728e-04
    51    2.080500830051e-04
    52   -4.385205753518e-15
    53    4.084873718648e-04
    54    1.461700425470e-05
    55   -2.110528395852e-04
    56    5.349800349365e-15
    57   -4.519240433960e-04
    58   -7.885082761751e-05
    59    1.372234466155e-04
    60   -7.796109766649e-15
    61   -3.109296957513e-05
    62    1.400988358938e-04
    63    6.589431821481e-06
    64   -2.953560068665e-13
    65   -4.197689171348e-05
    66    2.679501705787e-16
    67    1.280210668005e-16
    68    1.613281055745e-04
    69    1.083502354074e-04
    70    1.075393087593e-04
    71    1.180663026740e-04
    72    2.946850253410e-05
    73   -3.794184711704e-05
    74   -6.284094173494e-05
    75   -5.788037135762e-05
    76   -1.863847440735e-16
    77    3.202607683176e-04
    78    2.479380263407e-03
    79    1.236790605124e-02
    80    4.246466660040e-02
    81    1.003080605097e-01
    82    3.664457082307e-02
    83    1.343265156195e-01
    84    6.732236725374e-05
    85    9.105354819487e-05
    86   -1.272359218594e-15
    87    3.679663178525e-04
    88    2.940354311081e-04
    89    2.080506340736e-04
    90   -1.409377074082e-15
    91    4.084798717515e-04
    92   -1.461919660357e-05
    93   -2.110504048852e-04
    94    2.134318021204e-15
    95   -4.519157062643e-04
    96    7.885214788557e-05
    97    1.372224923117e-04
    98   -1.002106996649e-14
    99   -3.109239471571e-05
   100   -1.400987680221e-04
   101    6.587849994427e-06
   102    3.333819815569e-13
   103   -4.197612627490e-05
   104    5.822756667527e-17
   105   -2.507272918331e-16
   106    1.613292448752e-04
   107   -1.083506090437e-04
   108    1.075373381707e-04
   109    1.180641371780e-04
   110    2.946797564982e-05
   111   -3.794113110583e-05
   112    6.284032897185e-05
   113   -5.787899740627e-05
   114   -3.520568442503e-16
   115   -6.405314775303e-04
   116   -4.958837486464e-03
   117   -2.473619600168e-02
   118   -8.493065129071e-02
   119   -2.006192345712e-01
   120   -7.329027800227e-02
   121   -2.686572002386e-01
   122    9.038771574531e-05
   123   -5.835766142569e-10
   124   -6.614735499985e-16
   125   -7.359500149516e-04
   126    6.631572716863e-05
   127   -2.213620664239e-09
   128   -5.326550944927e-16
   129   -8.169677054402e-04
   130   -3.509335119545e-04
   131    7.414152255877e-10
   132    2.877957331512e-17
   133    9.038382399026e-04
   134    1.588258963232e-04
   135   -9.172543931789e-10
   136    1.163963627109e-15
   137    6.218554160591e-05
   138    1.515109718335e-04
   139    7.260297010888e-10
   140   -3.193279917701e-13
   141    8.395378695696e-05
   142   -1.873343991959e-16
   143   -1.994281477789e-15
   144   -2.633807858667e-05
   145   -1.180223399852e-09
   146   -2.150784241969e-04
   147   -2.361332571472e-04
   148   -5.893449232598e-05
   149    7.588310592777e-05
   150   -1.630931690644e-04
   151   -1.534631293094e-10
   152    2.918049373432e-16
   153    3.202666137593e-04
   154    2.479425517387e-03
   155    1.236813179196e-02
   156    4.246544167201e-02
   157    1.003098913471e-01
   158    3.664523961610e-02
   159    1.343289673838e-01
   160    6.732137451939e-05
   161   -9.105394411884e-05
   162   -4.744946816069e-16
   163    3.679729864686e-04
   164    2.940332535615e-04
   165   -2.080500821884e-04
   166    2.355208823860e-15
   167    4.084873224405e-04
   168   -1.461700759372e-05
   169    2.110528192088e-04
   170   -5.707358666885e-15
   171   -4.519240140109e-04
   172    7.885082287101e-05
   173   -1.372234402634e-04
   174    1.315720839922e-14
   175   -3.109296803929e-05
   176   -1.400988337009e-04
   177   -6.589429870261e-06
   178    2.834297320264e-13
   179   -4.197688733483e-05
   180   -6.949793056429e-16
   181    1.300416662475e-16
   182    1.613280983989e-04
   183    1.083502352963e-04
   184    1.075392988118e-04
   185    1.180662893697e-04
   186    2.946850173389e-05
   187   -3.794184233506e-05
   188    6.284093631732e-05
   189    5.788036391057e-05
   190    5.842034509066e-16
   191    3.202607536613e-04
   192    2.479380149936e-03
   193    1.236790548519e-02
   194    4.246466465703e-02
   195    1.003080559181e-01
   196    3.664456914535e-02
   197    1.343265094760e-01
   198   -6.732236524761e-05
   199   -9.105354833204e-05
   200   -3.571392315148e-17
   201    3.679662892332e-04
   202   -2.940354143164e-04
   203   -2.080506312274e-04
   204   -4.629613593338e-16
   205    4.084798753388e-04
   206    1.461918271204e-05
   207    2.110504075278e-04
   208    6.735525384810e-15
   209   -4.519156837154e-04
   210   -7.885214032180e-05
   211   -1.372224815936e-04
   212   -1.618588985609e-14
   213   -3.109239334550e-05
   214    1.400987660972e-04
   215   -6.587848845210e-06
   216   -2.609835648336e-13
   217   -4.197612354816e-05
   218   -1.577544362894e-15
   219   -7.942322976329e-17
   220    1.613292344356e-04
   221   -1.083506088898e-04
   222    1.075373322485e-04
   223    1.180641313233e-04
   224    2.946798165653e-05
   225   -3.794112627937e-05
   226   -6.284032483236e-05
   227    5.787899306149e-05
   228   -2.418464330879e-16
Sym=X
Ene= -0.005478
Spin=Alpha
Occup=1
     1   -3.393324212841e-10
     2   -1.127253879652e-09
     3    2.052279701012e-09
     4   -3.261124016710e-10
     5    8.031984645760e-10
     6    2.942378403078e-05
     7    8.675535839833e-16
     8    3.894971297172e-11
     9    3.018230390131e-10
    10    1.504614416225e-09
    11    5.177003997983e-09
    12    1.220754651667e-08
    13    5.357870344298e-09
    14    1.674138953165e-08
    15    4.496791157198e-10
    16    1.198917793056e-04
    17    1.651278050208e-16
    18   -4.832011712089e-09
    19    3.553239561209e-09
    20    4.141522351960e-04
    21   -1.349987894704e-15
    22    4.014149822205e-09
    23   -2.413126443613e-09
    24   -1.364688063720e-04
    25   -8.849916692036e-16
    26   -5.970870456494e-09
    27    6.320198652304e-10
    28    1.580772454358e-04
    29    6.371541960076e-15
    30   -1.698327475031e-10
    31    5.353156000706e-10
    32   -1.362948311718e-04
    33   -1.305847017354e-13
    34    1.895221591542e-10
    35   -3.452334191482e-16
    36    1.087270484479e-15
    37    1.578374914832e-09
    38   -2.238848040700e-04
    39    5.547102529441e-04
    40    4.294430630125e-03
    41    2.142193166582e-02
    42    7.355126910034e-02
    43    1.737393871595e-01
    44    6.347052531915e-02
    45    2.326613275099e-01
    46    9.105412309066e-05
    47    3.781743711041e-05
    48    1.470710469010e-15
    49    6.373375613059e-04
    50    2.080523513125e-04
    51   -5.379878829336e-05
    52   -8.197752790503e-16
    53    7.075119345252e-04
    54   -2.110516856325e-04
    55   -2.290822260032e-04
    56   -2.698774796828e-15
    57   -7.827471300501e-04
    58    1.372235973980e-04
    59    7.959970176330e-05
    60   -1.194832409254e-14
    61   -5.385398837972e-05
    62    6.587880081332e-06
    63    1.477066143013e-04
    64    1.239601794402e-13
    65   -7.270503546094e-05
    66   -7.626511817116e-16
    67    1.687704174506e-15
    68   -1.083514921142e-04
    69   -3.621658169330e-05
    70    1.862608086269e-04
    71    2.044936003072e-04
    72    5.104074042026e-05
    73   -6.571667757446e-05
    74   -5.787909243173e-05
    75   -1.296735892414e-04
    76    3.730900407237e-16
    77   -5.547204129808e-04
    78   -4.294509286058e-03
    79   -2.142232402749e-02
    80   -7.355261623409e-02
    81   -1.737425693385e-01
    82   -6.347168612224e-02
    83   -2.326655880831e-01
    84    9.105339968371e-05
    85   -3.781846304596e-05
    86    2.445534804069e-16
    87   -6.373590471864e-04
    88    2.080460551356e-04
    89    5.380214157022e-05
    90   -1.834825582075e-15
    91   -7.075171611228e-04
    92   -2.110510742104e-04
    93    2.290836511371e-04
    94   -1.489239429451e-15
    95    7.827494630012e-04
    96    1.372229371628e-04
    97   -7.960144450338e-05
    98    2.357251829355e-14
    99    5.385462687512e-05
   100    6.589605179336e-06
   101   -1.477071322556e-04
   102   -1.697171239316e-13
   103    7.270676437199e-05
   104    2.686256771072e-16
   105    9.649539931901e-16
   106    1.083483430645e-04
   107   -3.621792885763e-05
   108   -1.862649263448e-04
   109   -2.044996454632e-04
   110   -5.103763310682e-05
   111    6.571718728913e-05
   112   -5.788143339711e-05
   113    1.296771030871e-04
   114    2.529300213857e-16
   115   -3.539690270415e-11
   116   -2.737547169557e-10
   117   -1.366545217210e-09
   118   -4.680965710793e-09
   119   -1.107881653920e-08
   120   -3.149720297649e-09
   121   -1.444153947671e-08
   122   -4.374727554899e-10
   123   -1.198917796604e-04
   124   -8.816633867135e-16
   125   -4.910729511912e-09
   126   -3.554093356677e-09
   127   -4.141522384082e-04
   128   -3.974722608822e-15
   129    3.737393913197e-09
   130    2.267530230412e-09
   131    1.364688085172e-04
   132    4.275878161788e-15
   133   -5.930218997079e-09
   134   -6.457905351533e-10
   135   -1.580772475633e-04
   136   -3.682870606582e-14
   137   -1.681782428101e-10
   138   -5.304252704645e-10
   139    1.362948314778e-04
   140    2.288168563857e-13
   141    1.996963996741e-10
   142    2.325208878713e-16
   143    4.489816278495e-17
   144    1.573149573360e-09
   145   -2.238848059134e-04
   146   -3.633063833984e-10
   147   -1.169301418113e-09
   148    2.018640056685e-09
   149   -3.288887707982e-10
   150   -8.236900172072e-10
   151   -2.942378428594e-05
   152   -5.249264302989e-16
   153    5.547102931720e-04
   154    4.294430941556e-03
   155    2.142193321931e-02
   156    7.355127443436e-02
   157    1.737393997579e-01
   158    6.347052992155e-02
   159    2.326613443885e-01
   160   -9.105412670572e-05
   161   -3.781744889425e-05
   162   -1.888135026469e-15
   163    6.373375838831e-04
   164   -2.080523338392e-04
   165    5.379876858689e-05
   166    2.802674275007e-15
   167    7.075121741698e-04
   168    2.110517399525e-04
   169    2.290823534204e-04
   170   -8.180028642406e-15
   171   -7.827471336291e-04
   172   -1.372235729270e-04
   173   -7.959969152291e-05
   174    3.188820259229e-14
   175   -5.385398785350e-05
   176   -6.587882291504e-06
   177   -1.477066141129e-04
   178   -2.341232953995e-13
   179   -7.270503988995e-05
   180   -8.255338932978e-16
   181   -1.578483219725e-15
   182   -1.083514858084e-04
   183   -3.621656398911e-05
   184    1.862608197504e-04
   185    2.044936268027e-04
   186    5.104077851721e-05
   187   -6.571666678688e-05
   188    5.787909852953e-05
   189    1.296735954022e-04
   190    1.247144208285e-16
   191   -5.547204481344e-04
   192   -4.294509558218e-03
   193   -2.142232538507e-02
   194   -7.355262089550e-02
   195   -1.737425803479e-01
   196   -6.347169014421e-02
   197   -2.326656028348e-01
   198   -9.105340359337e-05
   199    3.781847458500e-05
   200   -9.021389724025e-16
   201   -6.373590613529e-04
   202   -2.080460411432e-04
   203   -5.380212226005e-05
   204    3.609037566681e-16
   205   -7.075173951976e-04
   206    2.110511297991e-04
   207   -2.290837764686e-04
   208    2.314218605832e-15
   209    7.827494610917e-04
   210   -1.372229138388e-04
   211    7.960143200151e-05
   212   -1.601522853870e-14
   213    5.385462596450e-05
   214   -6.589606793090e-06
   215    1.477071316076e-04
   216    1.840236729834e-13
   217    7.270676793433e-05
   218   -9.822627204735e-16
   219    2.617161240980e-16
   220    1.083483388602e-04
   221   -3.621791120536e-05
   222   -1.862649356099e-04
   223   -2.044996696668e-04
   224   -5.103767196731e-05
   225    6.571717493669e-05
   226    5.788143834738e-05
   227   -1.296771077751e-04
   228   -6.663945542218e-16
Sym=X
Ene= -0.060828
Spin=Alpha
Occup=1
     1    2.406361654390e-04
     2    2.922968858022e-04
     3   -8.245912197282e-05
     4   -1.543003029448e-04
     5   -2.277993790711e-04
     6   -3.246486155965e-10
     7    3.465371588408e-16
     8    6.403229688839e-04
     9    4.957082168335e-03
    10    2.472832278952e-02
    11    8.489930354273e-02
    12    2.005764521792e-01
    13    7.328253564543e-02
    14    2.684475491932e-01
    15    4.007254850243e-06
    16   -3.484688516538e-10
    17    1.277652708781e-15
    18    1.053048854489e-03
    19   -1.724473495513e-04
    20   -3.711108264242e-09
    21   -2.224999463263e-15
    22    6.945586708077e-04
    23   -1.529168531787e-04
    24    2.463426120793e-09
    25    1.003987838451e-14
    26   -7.444943054728e-04
    27    1.394876607001e-04
    28   -2.548615455673e-09
    29   -7.762900164993e-14
    30   -4.285634834017e-05
    31    7.454011056478e-05
    32    2.943406163609e-10
    33    9.960336825138e-13
    34   -1.077795772695e-04
    35   -9.216861676256e-16
    36    1.366746255775e-16
    37   -1.303246017067e-04
    38    2.107604636673e-09
    39    3.201606317853e-04
    40    2.478534483908e-03
    41    1.236412846579e-02
    42    4.244953873562e-02
    43    1.002879589017e-01
    44    3.664117011471e-02
    45    1.342234177223e-01
    46    5.772174799791e-05
    47   -3.101142274485e-05
    48    1.243511871656e-15
    49    5.265212421225e-04
    50    4.880774767590e-04
    51   -3.813531930404e-04
    52    2.486633289648e-15
    53    3.472866612081e-04
    54   -3.915148036916e-04
    55    1.377486830145e-04
    56   -1.117476942177e-14
    57   -3.722442801595e-04
    58    3.957116331507e-04
    59   -1.479325004560e-04
    60    8.618020700284e-14
    61   -2.142798111229e-05
    62   -2.273819537150e-05
    63    5.616336054815e-05
    64   -1.012702451856e-12
    65   -5.388956751088e-05
    66   -9.943850865625e-17
    67    1.090305860505e-15
    68   -2.711021959238e-04
    69   -2.317627463345e-04
    70    1.203176054847e-04
    71    1.461484623304e-04
    72   -4.122774051199e-05
    73   -7.714917301491e-05
    74   -1.010334532252e-05
    75   -1.256862642310e-04
    76    7.832970678361e-17
    77   -3.201663933918e-04
    78   -2.478579087579e-03
    79   -1.236435097044e-02
    80   -4.245030265610e-02
    81   -1.002897636817e-01
    82   -3.664182956461e-02
    83   -1.342258331861e-01
    84    5.772140087674e-05
    85    3.101119531323e-05
    86    1.983056603608e-15
    87   -5.265307438605e-04
    88    4.880735156992e-04
    89    3.813526882642e-04
    90   -2.230952344575e-15
    91   -3.472929074047e-04
    92   -3.915133746844e-04
    93   -1.377462642740e-04
    94    1.396737473074e-14
    95    3.722510984803e-04
    96    3.957100517976e-04
    97    1.479301716322e-04
    98   -8.736871775292e-14
    99    2.142837210291e-05
   100   -2.273761357045e-05
   101   -5.616380423836e-05
   102    1.026398324276e-12
   103    5.389053560672e-05
   104    7.718811113303e-16
   105    6.739054617612e-16
   106    2.710997848074e-04
   107   -2.317627060806e-04
   108   -1.203197712671e-04
   109   -1.461510904244e-04
   110    4.122846860689e-05
   111    7.715054160894e-05
   112   -1.010465042143e-05
   113    1.256878775078e-04
   114   -3.628308301129e-16
   115   -6.403229717274e-04
   116   -4.957082190338e-03
   117   -2.472832289930e-02
   118   -8.489930391962e-02
   119   -2.005764530695e-01
   120   -7.328253596928e-02
   121   -2.684475503848e-01
   122    4.007254543789e-06
   123   -3.437310740801e-10
   124   -3.217881908220e-16
   125   -1.053048865597e-03
   126   -1.724473549870e-04
   127   -3.695431542627e-09
   128    3.020057324037e-15
   129   -6.945586682618e-04
   130   -1.529168510300e-04
   131    2.458311103892e-09
   132   -9.402105479468e-15
   133    7.444942992778e-04
   134    1.394876598078e-04
   135   -2.540131615649e-09
   136    7.685140984175e-14
   137    4.285634825499e-05
   138    7.454011062080e-05
   139    2.886662687145e-10
   140   -1.012819039667e-12
   141    1.077795779616e-04
   142   -2.185313118701e-16
   143    4.011800387390e-16
   144    1.303246040999e-04
   145   -2.099065794162e-09
   146   -2.406361669610e-04
   147   -2.922968887017e-04
   148    8.245912491409e-05
   149    1.543003022764e-04
   150   -2.277993810885e-04
   151   -3.235166340274e-10
   152   -5.638782677703e-16
   153   -3.201606596845e-04
   154   -2.478534699899e-03
   155   -1.236412954321e-02
   156   -4.244954243489e-02
   157   -1.002879676400e-01
   158   -3.664117330546e-02
   159   -1.342234294235e-01
   160    5.772175118369e-05
   161   -3.101142086462e-05
   162    1.423909061614e-15
   163   -5.265212819022e-04
   164    4.880774809791e-04
   165   -3.813531987428e-04
   166   -2.031042128490e-15
   167   -3.472866909338e-04
   168   -3.915148113812e-04
   169    1.377486742210e-04
   170    5.659411545462e-15
   171    3.722443181122e-04
   172    3.957116384542e-04
   173   -1.479324926744e-04
   174   -6.814238248726e-14
   175    2.142798431090e-05
   176   -2.273819457042e-05
   177    5.616336734101e-05
   178    9.993988792876e-13
   179    5.388957148990e-05
   180   -1.115352080995e-16
   181    4.027788126722e-16
   182    2.711021982408e-04
   183    2.317627493010e-04
   184   -1.203176154119e-04
   185   -1.461484744690e-04
   186    4.122774156092e-05
   187    7.714917763259e-05
   188   -1.010334913087e-05
   189   -1.256862717451e-04
   190    4.546490220870e-16
   191    3.201664078347e-04
   192    2.478579199382e-03
   193    1.236435152815e-02
   194    4.245030457101e-02
   195    1.002897682049e-01
   196    3.664183121841e-02
   197    1.342258392440e-01
   198    5.772140455556e-05
   199    3.101119425887e-05
   200   -2.006519636492e-16
   201    5.265307525494e-04
   202    4.880735274441e-04
   203    3.813526867493e-04
   204    1.667364447719e-15
   205    3.472929323582e-04
   206   -3.915133832687e-04
   207   -1.377462558305e-04
   208   -9.473437567662e-15
   209   -3.722511358998e-04
   210    3.957100571506e-04
   211    1.479301658643e-04
   212    7.109749621159e-14
   213   -2.142837443934e-05
   214   -2.273761371026e-05
   215   -5.616381021725e-05
   216   -9.965532096322e-13
   217   -5.389053720519e-05
   218   -1.221631573501e-16
   219   -7.506312473063e-16
   220   -2.710997907750e-04
   221    2.317627059255e-04
   222    1.203197755485e-04
   223    1.461510938965e-04
   224   -4.122846430874e-05
   225   -7.715054542886e-05
   226   -1.010465102152e-05
   227    1.256878798873e-04
   228   -4.149066417531e-16
Sym=X
Ene= -0.060828
Spin=Alpha
Occup=1
     1    2.794652980703e-10
     2   -5.164281702696e-10
     3   -2.881936780625e-09
     4   -1.358038292061e-09
     5   -4.122347967784e-10
     6    6.246146465398e-05
     7   -9.227278277017e-16
     8    3.597361134613e-11
     9    2.775035757952e-10
    10    1.390396203023e-09
    11    4.743278046364e-09
    12    1.142657576295e-08
    13    4.187509480781e-09
    14    1.416877846611e-08
    15   -7.793535808189e-10
    16    7.562596368290e-05
    17   -6.093032539643e-17
    18    2.980512994912e-09
    19   -1.304069522158e-09
    20    7.082496766539e-04
    21    2.710481779368e-16
    22   -1.299250921397e-08
    23    8.484875545299e-09
    24   -4.710426453855e-04
    25   -2.144984663715e-16
    26   -2.880479886798e-09
    27    1.984916603823e-09
    28    4.811188329193e-04
    29   -1.807367304853e-14
    30   -2.170294561877e-10
    31    2.511427486854e-10
    32   -5.516399023897e-05
    33    9.840092145767e-14
    34   -1.653574167764e-10
    35    8.772426292651e-16
    36   -4.781619579703e-16
    37   -1.369433022927e-09
    38   -4.049092442435e-04
    39    5.545421437557e-04
    40    4.293006977488e-03
    41    2.141559462439e-02
    42    7.352577386886e-02
    43    1.737062405140e-01
    44    6.346524526885e-02
    45    2.324849919105e-01
    46   -3.101086346468e-05
    47    2.191283651103e-05
    48   -5.751822103288e-16
    49    9.119732772107e-04
    50   -3.813503273460e-04
    51    4.772519188552e-05
    52    1.490773843548e-15
    53    6.015299603687e-04
    54    1.377442105923e-04
    55   -2.324584661581e-04
    56   -2.862819199647e-15
    57   -6.447537874596e-04
    58   -1.479293784666e-04
    59    2.248933798986e-04
    60    1.581529261043e-14
    61   -3.711480086206e-05