[Molden Format]
[Atoms] (Angs)
  H      1    1      2.47503475      0.00000000     -0.00000000
  C      2    6      1.39359294      0.00000000     -0.00000000
  C      3    6      0.69679647      1.20688689      0.00000000
  H      4    1      1.23751738      2.14344297      0.00000000
  C      5    6     -0.69679647      1.20688689      0.00000000
  H      6    1     -1.23751738      2.14344297      0.00000000
  C      7    6     -1.39359294     -0.00000000      0.00000000
  H      8    1     -2.47503475     -0.00000000      0.00000000
  C      9    6     -0.69679647     -1.20688689     -0.00000000
  H     10    1     -1.23751738     -2.14344297     -0.00000000
  C     11    6      0.69679647     -1.20688689     -0.00000000
  H     12    1      1.23751738     -2.14344297     -0.00000000
[GTO]
1    0
S    3    1.000000
   3.38650000E+01    2.54938000E-02 
   5.09479000E+00    1.90373000E-01 
   1.15879000E+00    8.52161000E-01 
S    1    1.000000
   3.25840000E-01    1.00000000E+00 
S    1    1.000000
   1.02741000E-01    1.00000000E+00 
S    1    1.000000
   3.60000000E-02    1.00000000E+00 
P    1    1.000000
   7.50000000E-01    1.00000000E+00 

2    0
S    1    1.000000
   4.56324000E+03    1.96665000E-03 
S    1    1.000000
   6.82024000E+02    1.52306000E-02 
S    1    1.000000
   1.54973000E+02    7.61269000E-02 
S    1    1.000000
   4.44553000E+01    2.60801000E-01 
S    1    1.000000
   1.30290000E+01    6.16462000E-01 
S    1    1.000000
   1.82773000E+00    2.21006000E-01 
SP   3    1.000000
   2.09642000E+01    1.14660000E-01   4.02487000E-02 
   4.80331000E+00    9.19999000E-01   2.37594000E-01 
   1.45933000E+00   -3.03068000E-03   8.15854000E-01 
SP   1    1.000000
   4.83456000E-01    1.00000000E+00   1.00000000E+00 
SP   1    1.000000
   1.45585000E-01    1.00000000E+00   1.00000000E+00 
SP   1    1.000000
   4.38000000E-02    1.00000000E+00   1.00000000E+00 
SP   1    1.000000
   1.31927711E-02    1.00000000E+00   1.00000000E+00 
D    1    1.000000
   6.26000000E-01    1.00000000E+00 

3    0
S    1    1.000000
   4.56324000E+03    1.96665000E-03 
S    1    1.000000
   6.82024000E+02    1.52306000E-02 
S    1    1.000000
   1.54973000E+02    7.61269000E-02 
S    1    1.000000
   4.44553000E+01    2.60801000E-01 
S    1    1.000000
   1.30290000E+01    6.16462000E-01 
S    1    1.000000
   1.82773000E+00    2.21006000E-01 
SP   3    1.000000
   2.09642000E+01    1.14660000E-01   4.02487000E-02 
   4.80331000E+00    9.19999000E-01   2.37594000E-01 
   1.45933000E+00   -3.03068000E-03   8.15854000E-01 
SP   1    1.000000
   4.83456000E-01    1.00000000E+00   1.00000000E+00 
SP   1    1.000000
   1.45585000E-01    1.00000000E+00   1.00000000E+00 
SP   1    1.000000
   4.38000000E-02    1.00000000E+00   1.00000000E+00 
SP   1    1.000000
   1.31927711E-02    1.00000000E+00   1.00000000E+00 
D    1    1.000000
   6.26000000E-01    1.00000000E+00 

4    0
S    3    1.000000
   3.38650000E+01    2.54938000E-02 
   5.09479000E+00    1.90373000E-01 
   1.15879000E+00    8.52161000E-01 
S    1    1.000000
   3.25840000E-01    1.00000000E+00 
S    1    1.000000
   1.02741000E-01    1.00000000E+00 
S    1    1.000000
   3.60000000E-02    1.00000000E+00 
P    1    1.000000
   7.50000000E-01    1.00000000E+00 

5    0
S    1    1.000000
   4.56324000E+03    1.96665000E-03 
S    1    1.000000
   6.82024000E+02    1.52306000E-02 
S    1    1.000000
   1.54973000E+02    7.61269000E-02 
S    1    1.000000
   4.44553000E+01    2.60801000E-01 
S    1    1.000000
   1.30290000E+01    6.16462000E-01 
S    1    1.000000
   1.82773000E+00    2.21006000E-01 
SP   3    1.000000
   2.09642000E+01    1.14660000E-01   4.02487000E-02 
   4.80331000E+00    9.19999000E-01   2.37594000E-01 
   1.45933000E+00   -3.03068000E-03   8.15854000E-01 
SP   1    1.000000
   4.83456000E-01    1.00000000E+00   1.00000000E+00 
SP   1    1.000000
   1.45585000E-01    1.00000000E+00   1.00000000E+00 
SP   1    1.000000
   4.38000000E-02    1.00000000E+00   1.00000000E+00 
SP   1    1.000000
   1.31927711E-02    1.00000000E+00   1.00000000E+00 
D    1    1.000000
   6.26000000E-01    1.00000000E+00 

6    0
S    3    1.000000
   3.38650000E+01    2.54938000E-02 
   5.09479000E+00    1.90373000E-01 
   1.15879000E+00    8.52161000E-01 
S    1    1.000000
   3.25840000E-01    1.00000000E+00 
S    1    1.000000
   1.02741000E-01    1.00000000E+00 
S    1    1.000000
   3.60000000E-02    1.00000000E+00 
P    1    1.000000
   7.50000000E-01    1.00000000E+00 

7    0
S    1    1.000000
   4.56324000E+03    1.96665000E-03 
S    1    1.000000
   6.82024000E+02    1.52306000E-02 
S    1    1.000000
   1.54973000E+02    7.61269000E-02 
S    1    1.000000
   4.44553000E+01    2.60801000E-01 
S    1    1.000000
   1.30290000E+01    6.16462000E-01 
S    1    1.000000
   1.82773000E+00    2.21006000E-01 
SP   3    1.000000
   2.09642000E+01    1.14660000E-01   4.02487000E-02 
   4.80331000E+00    9.19999000E-01   2.37594000E-01 
   1.45933000E+00   -3.03068000E-03   8.15854000E-01 
SP   1    1.000000
   4.83456000E-01    1.00000000E+00   1.00000000E+00 
SP   1    1.000000
   1.45585000E-01    1.00000000E+00   1.00000000E+00 
SP   1    1.000000
   4.38000000E-02    1.00000000E+00   1.00000000E+00 
SP   1    1.000000
   1.31927711E-02    1.00000000E+00   1.00000000E+00 
D    1    1.000000
   6.26000000E-01    1.00000000E+00 

8    0
S    3    1.000000
   3.38650000E+01    2.54938000E-02 
   5.09479000E+00    1.90373000E-01 
   1.15879000E+00    8.52161000E-01 
S    1    1.000000
   3.25840000E-01    1.00000000E+00 
S    1    1.000000
   1.02741000E-01    1.00000000E+00 
S    1    1.000000
   3.60000000E-02    1.00000000E+00 
P    1    1.000000
   7.50000000E-01    1.00000000E+00 

9    0
S    1    1.000000
   4.56324000E+03    1.96665000E-03 
S    1    1.000000
   6.82024000E+02    1.52306000E-02 
S    1    1.000000
   1.54973000E+02    7.61269000E-02 
S    1    1.000000
   4.44553000E+01    2.60801000E-01 
S    1    1.000000
   1.30290000E+01    6.16462000E-01 
S    1    1.000000
   1.82773000E+00    2.21006000E-01 
SP   3    1.000000
   2.09642000E+01    1.14660000E-01   4.02487000E-02 
   4.80331000E+00    9.19999000E-01   2.37594000E-01 
   1.45933000E+00   -3.03068000E-03   8.15854000E-01 
SP   1    1.000000
   4.83456000E-01    1.00000000E+00   1.00000000E+00 
SP   1    1.000000
   1.45585000E-01    1.00000000E+00   1.00000000E+00 
SP   1    1.000000
   4.38000000E-02    1.00000000E+00   1.00000000E+00 
SP   1    1.000000
   1.31927711E-02    1.00000000E+00   1.00000000E+00 
D    1    1.000000
   6.26000000E-01    1.00000000E+00 

10    0
S    3    1.000000
   3.38650000E+01    2.54938000E-02 
   5.09479000E+00    1.90373000E-01 
   1.15879000E+00    8.52161000E-01 
S    1    1.000000
   3.25840000E-01    1.00000000E+00 
S    1    1.000000
   1.02741000E-01    1.00000000E+00 
S    1    1.000000
   3.60000000E-02    1.00000000E+00 
P    1    1.000000
   7.50000000E-01    1.00000000E+00 

11    0
S    1    1.000000
   4.56324000E+03    1.96665000E-03 
S    1    1.000000
   6.82024000E+02    1.52306000E-02 
S    1    1.000000
   1.54973000E+02    7.61269000E-02 
S    1    1.000000
   4.44553000E+01    2.60801000E-01 
S    1    1.000000
   1.30290000E+01    6.16462000E-01 
S    1    1.000000
   1.82773000E+00    2.21006000E-01 
SP   3    1.000000
   2.09642000E+01    1.14660000E-01   4.02487000E-02 
   4.80331000E+00    9.19999000E-01   2.37594000E-01 
   1.45933000E+00   -3.03068000E-03   8.15854000E-01 
SP   1    1.000000
   4.83456000E-01    1.00000000E+00   1.00000000E+00 
SP   1    1.000000
   1.45585000E-01    1.00000000E+00   1.00000000E+00 
SP   1    1.000000
   4.38000000E-02    1.00000000E+00   1.00000000E+00 
SP   1    1.000000
   1.31927711E-02    1.00000000E+00   1.00000000E+00 
D    1    1.000000
   6.26000000E-01    1.00000000E+00 

12    0
S    3    1.000000
   3.38650000E+01    2.54938000E-02 
   5.09479000E+00    1.90373000E-01 
   1.15879000E+00    8.52161000E-01 
S    1    1.000000
   3.25840000E-01    1.00000000E+00 
S    1    1.000000
   1.02741000E-01    1.00000000E+00 
S    1    1.000000
   3.60000000E-02    1.00000000E+00 
P    1    1.000000
   7.50000000E-01    1.00000000E+00 

[MO]
Sym=X
Ene= -0.011093
Spin=Alpha
Occup=1
     1    1.990935945640e-04
     2    3.206193103220e-04
     3   -2.295558339816e-04
     4   -7.827861129113e-06
     5   -2.240240348570e-04
     6    2.162592381468e-10
     7    2.129050178230e-16
     8    4.526997408209e-04
     9    3.504652897546e-03
    10    1.748240775834e-02
    11    6.002362281255e-02
    12    1.417878181607e-01
    13    5.167761521668e-02
    14    1.898212552862e-01
    15    4.657408878157e-06
    16    9.240574817725e-10
    17    1.107997855619e-15
    18    1.172114400198e-03
    19   -4.283802930686e-04
    20    3.037638637412e-09
    21   -3.072387647636e-15
    22    6.070892304912e-05
    23    6.318585836988e-05
    24   -9.848611357846e-10
    25    6.126177174858e-15
    26    1.610827981224e-04
    27    2.407544703970e-05
    28    1.152843268002e-09
    29   -1.941310132489e-14
    30   -2.093870402047e-05
    31    3.459965527056e-05
    32   -1.004698007198e-09
    33   -1.106933087281e-14
    34   -8.567788784864e-05
    35   -7.058365421474e-16
    36   -1.019674826939e-15
    37   -1.922950402129e-04
    38   -1.649732272593e-09
    39    4.527159858771e-04
    40    3.504778662792e-03
    41    1.748303511391e-02
    42    6.002577681057e-02
    43    1.417929062314e-01
    44    5.167947389245e-02
    45    1.898280689737e-01
    46    2.329190086965e-06
    47    4.035957748990e-06
    48    7.686732701472e-16
    49    1.172133028749e-03
    50   -2.141919341066e-04
    51   -3.709854316663e-04
    52    7.665655148154e-16
    53    6.072968205385e-05
    54    3.158936456349e-05
    55    5.471244501202e-05
    56   -2.788698148122e-15
    57    1.610586838791e-04
    58    1.203910639024e-05
    59    2.085458220430e-05
    60    1.046576133448e-14
    61   -2.094040202065e-05
    62    1.730263099084e-05
    63    2.996705063794e-05
    64    1.805984845648e-14
    65   -8.568003226519e-05
    66    9.835083111088e-16
    67   -6.748631479412e-16
    68    9.614857835553e-05
    69   -1.665310667760e-04
    70    1.990990603461e-04
    71    3.206253690961e-04
    72   -2.295545077597e-04
    73   -7.830122443205e-06
    74   -1.120142800266e-04
    75   -1.940140136609e-04
    76   -1.199517632666e-16
    77    4.527076858331e-04
    78    3.504714405872e-03
    79    1.748271458073e-02
    80    6.002467627287e-02
    81    1.417903065941e-01
    82    5.167852427219e-02
    83    1.898245876719e-01
    84   -2.327791109814e-06
    85    4.035393293294e-06
    86    2.028960481901e-16
    87    1.172123524966e-03
    88    2.141950267105e-04
    89   -3.709846155825e-04
    90   -2.326301394781e-16
    91    6.071906992018e-05
    92   -3.159252484956e-05
    93    5.471588441747e-05
    94   -1.292517211933e-15
    95    1.610706798872e-04
    96   -1.203698734362e-05
    97    2.085327906576e-05
    98   -1.090365101031e-15
    99   -2.093956856680e-05
   100   -1.730252922568e-05
   101    2.996485751595e-05
   102   -2.688762318016e-14
   103   -8.567894131135e-05
   104    4.165806171546e-16
   105    6.957992819677e-16
   106    9.615019894899e-05
   107    1.665305185619e-04
   108    1.990962744118e-04
   109    3.206222986613e-04
   110   -2.295552554794e-04
   111   -7.829085075963e-06
   112    1.120134129527e-04
   113   -1.940120707313e-04
   114   -5.592945690561e-16
   115    4.526997331077e-04
   116    3.504652837835e-03
   117    1.748240746048e-02
   118    6.002362178990e-02
   119    1.417878157446e-01
   120    5.167761433397e-02
   121    1.898212520527e-01
   122   -4.657408828527e-06
   123   -9.329962480409e-10
   124   -6.800377149503e-16
   125    1.172114387470e-03
   126    4.283802910569e-04
   127   -3.120306647510e-09
   128    1.540741600051e-15
   129    6.070891588106e-05
   130   -6.318585952913e-05
   131    1.040019761447e-09
   132    4.686505039042e-16
   133    1.610828129220e-04
   134   -2.407544679737e-05
   135   -1.211353772998e-09
   136   -1.772781992687e-16
   137   -2.093870334181e-05
   138   -3.459965465606e-05
   139    1.010980341425e-09
   140    3.487872948388e-14
   141   -8.567788656219e-05
   142    4.696580743518e-16
   143    1.622484286190e-16
   144   -1.922950386826e-04
   145   -1.697030213399e-09
   146    1.990935916449e-04
   147    3.206193070062e-04
   148   -2.295558333108e-04
   149   -7.827860900341e-06
   150    2.240240321392e-04
   151   -2.235664195819e-10
   152    1.605226396117e-16
   153    4.527160468441e-04
   154    3.504779134773e-03
   155    1.748303746836e-02
   156    6.002578489409e-02
   157    1.417929253289e-01
   158    5.167948086979e-02
   159    1.898280945335e-01
   160   -2.329185725696e-06
   161   -4.035960712847e-06
   162   -1.742143635659e-15
   163    1.172133128978e-03
   164    2.141919844593e-04
   165    3.709854214816e-04
   166    1.696100518437e-15
   167    6.072974719065e-05
   168   -3.158938582260e-05
   169   -5.471241678176e-05
   170   -1.642317122944e-15
   171    1.610586119861e-04
   172   -1.203908096180e-05
   173   -2.085461191128e-05
   174   -6.397231798863e-15
   175   -2.094040611096e-05
   176   -1.730263753237e-05
   177   -2.996705478329e-05
   178   -2.589194171829e-14
   179   -8.568004252699e-05
   180    5.089278399283e-16
   181   -4.253607708935e-16
   182    9.614860867077e-05
   183   -1.665310635662e-04
   184    1.990990832730e-04
   185    3.206253967191e-04
   186   -2.295545156708e-04
   187   -7.830136710184e-06
   188    1.120142945832e-04
   189    1.940140302640e-04
   190    1.009989006371e-15
   191    4.527077544287e-04
   192    3.504714936912e-03
   193    1.748271722982e-02
   194    6.002468536792e-02
   195    1.417903280813e-01
   196    5.167853212262e-02
   197    1.898246164300e-01
   198    2.327788140699e-06
   199   -4.035395506513e-06
   200    8.724909750239e-16
   201    1.172123637672e-03
   202   -2.141950653913e-04
   203    3.709846146416e-04
   204    1.035083277055e-16
   205    6.071914559875e-05
   206    3.159253587869e-05
   207   -5.471585825695e-05
   208   -3.571442821653e-15
   209    1.610705936223e-04
   210    1.203697599079e-05
   211   -2.085330266412e-05
   212    1.696871744442e-14
   213   -2.093957330359e-05
   214    1.730253548523e-05
   215   -2.996486306842e-05
   216    9.635918481943e-15
   217   -8.567895288690e-05
   218   -8.311155245688e-16
   219   -2.230508391231e-16
   220    9.615022278825e-05
   221    1.665305209728e-04
   222    1.990963001947e-04
   223    3.206223300488e-04
   224   -2.295552639594e-04
   225   -7.829101579032e-06
   226   -1.120134277650e-04
   227    1.940120903803e-04
   228   -4.216223328825e-16
Sym=X
Ene= -0.052893
Spin=Alpha
Occup=1
     1    2.798313321681e-10
     2   -5.159835139635e-10
     3   -2.882062272255e-09
     4   -1.358272795131e-09
     5   -4.125813257597e-10
     6    6.246146465399e-05
     7   -9.227278271747e-16
     8    3.694758027726e-11
     9    2.850435829615e-10
    10    1.428009415125e-09
    11    4.872414842943e-09
    12    1.173166438807e-08
    13    4.298976753492e-09
    14    1.457710260738e-08
    15   -7.793474761174e-10
    16    7.562596368290e-05
    17   -6.093032345311e-17
    18    2.982114501467e-09
    19   -1.304331848128e-09
    20    7.082496766539e-04
    21    2.710481745523e-16
    22   -1.299145274345e-08
    23    8.484643005486e-09
    24   -4.710426453856e-04
    25   -2.144984511002e-16
    26   -2.881611821224e-09
    27    1.985128540025e-09
    28    4.811188329194e-04
    29   -1.807367316662e-14
    30   -2.170945957431e-10
    31    2.512560953971e-10
    32   -5.516399023898e-05
    33    9.840092297273e-14
    34   -1.655213260030e-10
    35    8.772426278632e-16
    36   -4.781619577625e-16
    37   -1.369631251474e-09
    38   -4.049092442435e-04
    39    5.545421442427e-04
    40    4.293006981257e-03
    41    2.141559464320e-02
    42    7.352577393343e-02
    43    1.737062406666e-01
    44    6.346524532459e-02
    45    2.324849921147e-01
    46   -3.101086337689e-05
    47    2.191283646387e-05
    48   -5.751822084373e-16
    49    9.119732780116e-04
    50   -3.813503266036e-04
    51    4.772519130541e-05
    52    1.490773847330e-15
    53    6.015299608971e-04
    54    1.377442099967e-04
    55   -2.324584659486e-04
    56   -2.862819216645e-15
    57   -6.447537880266e-04
    58   -1.479293778646e-04
    59    2.248933796739e-04
    60    1.581529274153e-14
    61   -3.711480089473e-05
    62    5.616351345159e-05
    63    4.211455600198e-05
    64   -9.965356755364e-14
    65   -9.334069353256e-05
    66   -5.570262383365e-16
    67    3.566738877515e-16
    68    2.317612119829e-04
    69    3.483388059412e-06
    70    2.083990137397e-04
    71    2.531401782154e-04
    72   -7.140876147349e-05
    73   -1.336277440182e-04
    74   -1.256872387604e-04
    75   -1.552357902644e-04
    76   -3.852873540174e-16
    77    5.545321676146e-04
    78    4.292929744834e-03
    79    2.141520936278e-02
    80    7.352445109482e-02
    81    1.737031158787e-01
    82    6.346410379368e-02
    83    2.324808076662e-01
    84    3.101231184755e-05
    85    2.191177013121e-05
    86   -5.649371655235e-16
    87    9.119627150189e-04
    88    3.813557384110e-04
    89    4.772848181429e-05
    90    7.958847265034e-16
    91    6.014931232868e-04
    92   -1.377575339751e-04
    93   -2.324438180922e-04
    94   -3.422850345155e-16
    95   -6.447481391595e-04
    96    1.479322041595e-04
    97    2.248970128866e-04
    98   -1.782971359892e-14
    99   -3.711457034205e-05
   100   -5.616360961828e-05
   101    4.211373829687e-05
   102    8.130664064982e-14
   103   -9.333932968050e-05
   104   -6.215782543557e-16
   105    4.052026368791e-16
   106    2.317647012409e-04
   107   -3.484613221289e-06
   108    2.083957945006e-04
   109    2.531345418167e-04
   110   -7.141318970132e-05
   111   -1.336280186513e-04
   112    1.256863473684e-04
   113   -1.552331223489e-04
   114   -4.787301088466e-16
   115    4.029642049124e-11
   116    3.129610833685e-10
   117    1.555037843651e-09
   118    5.369569490943e-09
   119    1.246182813305e-08
   120    4.525346419945e-09
   121    1.781517998051e-08
   122   -7.833338775950e-10
   123    7.562596312138e-05
   124   -4.073313108758e-16
   125   -2.817246377582e-09
   126   -1.256752408143e-09
   127    7.082496747560e-04
   128    4.068673242866e-16
   129    1.303008114231e-08
   130    8.490411845403e-09
   131   -4.710426452001e-04
   132   -3.473001319328e-15
   133    2.853204110899e-09
   134    1.971085513687e-09
   135    4.811188462453e-04
   136    2.246025890869e-14
   137    2.110711308556e-10
   138    2.415486383140e-10
   139   -5.516398998183e-05
   140   -5.962384480289e-14
   141    1.522912384839e-10
   142   -4.549397387460e-16
   143    3.264682643529e-16
   144    1.348133392988e-09
   145    4.049092432224e-04
   146   -2.483975165302e-10
   147    5.624101106328e-10
   148    2.856989690757e-09
   149    1.351931321685e-09
   150   -3.802027686764e-10
   151    6.246146453466e-05
   152   -1.045019366805e-15
   153   -5.545421009994e-04
   154   -4.293006646474e-03
   155   -2.141559297318e-02
   156   -7.352576819966e-02
   157   -1.737062271223e-01
   158   -6.346524039047e-02
   159   -2.324849739831e-01
   160   -3.101086669911e-05
   161    2.191283933616e-05
   162    1.496355739212e-15
   163   -9.119731520890e-04
   164   -3.813503136841e-04
   165    4.772524276688e-05
   166   -4.378939917764e-15
   167   -6.015299662496e-04
   168    1.377442082668e-04
   169   -2.324584795172e-04
   170    7.171231807707e-15
   171    6.447538237881e-04
   172   -1.479293951297e-04
   173    2.248933897644e-04
   174   -2.853010179508e-14
   175    3.711479963860e-05
   176    5.616351604812e-05
   177    4.211455286111e-05
   178    6.157360721745e-14
   179    9.334068480155e-05
   180    6.565913751253e-16
   181    2.473882298216e-17
   182   -2.317612073826e-04
   183   -3.483411787667e-06
   184   -2.083989937293e-04
   185   -2.531401442500e-04
   186    7.140873370956e-05
   187    1.336277441708e-04
   188   -1.256872278056e-04
   189   -1.552357691878e-04
   190   -5.802358051663e-16
   191   -5.545321294462e-04
   192   -4.292929449349e-03
   193   -2.141520788878e-02
   194   -7.352444603408e-02
   195   -1.737031039242e-01
   196   -6.346409944037e-02
   197   -2.324807916636e-01
   198    3.101231432292e-05
   199    2.191177332967e-05
   200   -4.538430717294e-16
   201   -9.119625948848e-04
   202    3.813557235397e-04
   203    4.772853278082e-05
   204    5.400249480689e-16
   205   -6.014931352216e-04
   206   -1.377575295362e-04
   207   -2.324438332316e-04
   208   -6.675322796861e-15
   209    6.447481882036e-04
   210    1.479321939865e-04
   211    2.248970133607e-04
   212    2.517782063423e-14
   213    3.711457027572e-05
   214   -5.616361292968e-05
   215    4.211373526756e-05
   216   -7.826159181374e-14
   217    9.333932161728e-05
   218    1.204231495747e-15
   219   -7.240244451958e-16
   220   -2.317646956508e-04
   221    3.484636617830e-06
   222   -2.083957761698e-04
   223   -2.531345097937e-04
   224    7.141316199023e-05
   225    1.336280221696e-04
   226    1.256863369196e-04
   227   -1.552331024632e-04
   228   -8.056626894483e-16
Sym=X
Ene= -0.052895
Spin=Alpha
Occup=1
     1    2.406367577003e-04
     2    2.922981201809e-04
     3   -8.245765918161e-05
     4   -1.542999746511e-04
     5   -2.277998509516e-04
     6   -3.247416011505e-10
     7    3.465388840161e-16
     8    6.403249670700e-04
     9    4.957097637962e-03
    10    2.472839995581e-02
    11    8.489956849475e-02
    12    2.005770780001e-01
    13    7.328276428092e-02
    14    2.684483874607e-01
    15    4.007737256334e-06
    16   -3.485813086130e-10
    17    1.277658213785e-15
    18    1.053050400341e-03
    19   -1.724471189631e-04
    20   -3.712162832848e-09
    21   -2.225009705688e-15
    22    6.945686422485e-04
    23   -1.529224222600e-04
    24    2.464127456121e-09
    25    1.003987928995e-14
    26   -7.444948615556e-04
    27    1.394869145864e-04
    28   -2.549331703603e-09
    29   -7.762912130201e-14
    30   -4.285635149524e-05
    31    7.454019338456e-05
    32    2.944227832698e-10
    33    9.960371560832e-13
    34   -1.077798189493e-04
    35   -9.216853955138e-16
    36    1.366733721110e-16
    37   -1.303241926093e-04
    38    2.108207474454e-09
    39    3.201586327768e-04
    40    2.478519007914e-03
    41    1.236405126774e-02
    42    4.244927367457e-02
    43    1.002873328232e-01
    44    3.664094138512e-02
    45    1.342225791101e-01
    46    5.772150684085e-05
    47   -3.101184055393e-05
    48    1.243501495485e-15
    49    5.265196949186e-04
    50    4.880773620343e-04
    51   -3.813533928082e-04
    52    2.486654252127e-15
    53    3.472766888752e-04
    54   -3.915120193578e-04
    55    1.377535063262e-04
    56   -1.117479260423e-14
    57   -3.722437231233e-04
    58    3.957120064298e-04
    59   -1.479318546382e-04
    60    8.618036731168e-14
    61   -2.142797790227e-05
    62   -2.273823686496e-05
    63    5.616328876170e-05
    64   -1.012706046726e-12
    65   -5.388932569264e-05
    66   -9.944059060814e-17
    67    1.090301782910e-15
    68   -2.711019917209e-04
    69   -2.317631006296e-04
    70    1.203170129144e-04
    71    1.461472275762e-04
    72   -4.122920319678e-05
    73   -7.714950111013e-05
    74   -1.010310919559e-05
    75   -1.256858553405e-04
    76    7.833261771505e-17
    77   -3.201643960343e-04
    78   -2.478563624367e-03
    79   -1.236427383615e-02
    80   -4.245003781395e-02
    81   -1.002891381203e-01
    82   -3.664160102397e-02
    83   -1.342249952660e-01
    84    5.772115962753e-05
    85    3.101161305709e-05
    86    1.983054967905e-15
    87   -5.265291993715e-04
    88    4.880733998391e-04
    89    3.813528878898e-04
    90   -2.230949524286e-15
    91   -3.472829368628e-04
    92   -3.915105899405e-04
    93   -1.377510868936e-04
    94    1.396738510165e-14
    95    3.722505433641e-04
    96    3.957104246365e-04
    97    1.479295251444e-04
    98   -8.736885793107e-14
    99    2.142836900344e-05
   100   -2.273765489662e-05
   101   -5.616373257732e-05
   102    1.026401854825e-12
   103    5.389029406636e-05
   104    7.718811780729e-16
   105    6.739035926048e-16
   106    2.710995799145e-04
   107   -2.317630603652e-04
   108   -1.203191793172e-04
   109   -1.461498564238e-04
   110    4.122993150444e-05
   111    7.715087010240e-05
   112   -1.010441466870e-05
   113    1.256874690795e-04
   114   -3.628291495754e-16
   115   -6.403249699136e-04
   116   -4.957097659965e-03
   117   -2.472840006560e-02
   118   -8.489956887165e-02
   119   -2.005770788905e-01
   120   -7.328276460477e-02
   121   -2.684483886523e-01
   122    4.007736949867e-06
   123   -3.438434781109e-10
   124   -3.217845357701e-16
   125   -1.053050411449e-03
   126   -1.724471243987e-04
   127   -3.696485856602e-09
   128    3.020052151090e-15
   129   -6.945686397026e-04
   130   -1.529224201115e-04
   131    2.459012365064e-09
   132   -9.402089174360e-15
   133    7.444948553595e-04
   134    1.394869136935e-04
   135   -2.540847729439e-09
   136    7.685148960226e-14
   137    4.285635140996e-05
   138    7.454019344051e-05
   139    2.887483461848e-10
   140   -1.012822379619e-12
   141    1.077798196415e-04
   142   -2.185318433688e-16
   143    4.011782164064e-16
   144    1.303241950025e-04
   145   -2.099668506794e-09
   146   -2.406367592223e-04
   147   -2.922981230804e-04
   148    8.245766212273e-05
   149    1.542999739825e-04
   150   -2.277998529689e-04
   151   -3.236096056801e-10
   152   -5.638796790011e-16
   153   -3.201586606763e-04
   154   -2.478519223908e-03
   155   -1.236405234517e-02
   156   -4.244927737387e-02
   157   -1.002873415615e-01
   158   -3.664094457590e-02
   159   -1.342225908114e-01
   160    5.772151002668e-05
   161   -3.101183867370e-05
   162    1.423903348909e-15
   163   -5.265197346987e-04
   164    4.880773662546e-04
   165   -3.813533985106e-04
   166   -2.031040002425e-15
   167   -3.472767186010e-04
   168   -3.915120270476e-04
   169    1.377534975326e-04
   170    5.659395434406e-15
   171    3.722437610763e-04
   172    3.957120117333e-04
   173   -1.479318468564e-04
   174   -6.814242740496e-14
   175    2.142798110090e-05
   176   -2.273823606381e-05
   177    5.616329555466e-05
   178    9.994021020330e-13
   179    5.388932967168e-05
   180   -1.115340426296e-16
   181    4.027805646619e-16
   182    2.711019940380e-04
   183    2.317631035960e-04
   184   -1.203170228416e-04
   185   -1.461472397149e-04
   186    4.122920424570e-05
   187    7.714950572797e-05
   188   -1.010311300394e-05
   189   -1.256858628546e-04
   190    4.546527595669e-16
   191    3.201644104776e-04
   192    2.478563736173e-03
   193    1.236427439387e-02
   194    4.245003972891e-02
   195    1.002891426437e-01
   196    3.664160267780e-02
   197    1.342250013241e-01
   198    5.772116330639e-05
   199    3.101161200269e-05
   200   -2.006515665004e-16
   201    5.265292080607e-04
   202    4.880734115841e-04
   203    3.813528863749e-04
   204    1.667359990121e-15
   205    3.472829618167e-04
   206   -3.915105985248e-04
   207   -1.377510784500e-04
   208   -9.473428298192e-15
   209   -3.722505807830e-04
   210    3.957104299893e-04
   211    1.479295193768e-04
   212    7.109756214684e-14
   213   -2.142837133979e-05
   214   -2.273765503651e-05
   215   -5.616373855628e-05
   216   -9.965565062765e-13
   217   -5.389029566486e-05
   218   -1.221631361565e-16
   219   -7.506316020866e-16
   220   -2.710995858821e-04
   221    2.317630602102e-04
   222    1.203191835987e-04
   223    1.461498598960e-04
   224   -4.122992720619e-05
   225   -7.715087392210e-05
   226   -1.010441526883e-05
   227    1.256874714590e-04
   228   -4.149062887654e-16
Sym=X
Ene= -0.141261
Spin=Alpha
Occup=1
     1   -2.150803389386e-04
     2   -2.361363417886e-04
     3   -5.893228900719e-05
     4    7.588318043925e-05
     5    1.630953232615e-04
     6    1.558782726696e-10
     7   -2.827497187627e-16
     8   -6.405358326089e-04
     9   -4.958871202061e-03
    10   -2.473636418659e-02
    11   -8.493122873224e-02
    12   -2.006205986035e-01
    13   -7.329077515381e-02
    14   -2.686590263654e-01
    15   -9.038776175034e-05
    16    5.867477781033e-10
    17   -2.520221543836e-15
    18   -7.359612840458e-04
    19   -6.631160977584e-05
    20    2.240993083760e-09
    21    2.945476101073e-15
    22   -8.169683113770e-04
    23    3.509329178077e-04
    24   -7.595363299137e-10
    25   -7.916703041481e-15
    26    9.038366880444e-04
    27   -1.588261260303e-04
    28    9.366022091557e-10
    29    1.748032355576e-14
    30    6.218574275047e-05
    31   -1.515113046515e-04
    32   -7.281986331935e-10
    33    2.616014641727e-13
    34    8.395461088655e-05
    35   -3.687762819770e-16
    36    3.482177089328e-17
    37   -2.633623133860e-05
    38   -1.195899209696e-09
    39    3.202622893219e-04
    40    2.479392039004e-03
    41    1.236796479036e-02
    42    4.246486829320e-02
    43    1.003085369124e-01
    44    3.664474597111e-02
    45    1.343271541058e-01
    46   -6.732139710302e-05
    47    9.105390711796e-05
    48    1.652494030012e-15
    49    3.679617586298e-04
    50   -2.940312061700e-04
    51    2.080536498054e-04
    52   -4.385213124918e-15
    53    4.084867888718e-04
    54    1.461670027639e-05
    55   -2.110533659142e-04
    56    5.349827158342e-15
    57   -4.519255928924e-04
    58   -7.885094320211e-05
    59    1.372232462127e-04
    60   -7.796210405372e-15
    61   -3.109276831071e-05