Q-Chem Developer Version!
                  Welcome to Q-Chem
     A Quantum Leap Into The Future Of Chemistry


 Q-Chem 5.1, Q-Chem, Inc., Pleasanton, CA (2018)

 Yihan Shao,  Zhengting Gan,  E. Epifanovsky,  A. T. B. Gilbert,  M. Wormit,  
 J. Kussmann,  A. W. Lange,  A. Behn,  Jia Deng,  Xintian Feng,  D. Ghosh,  
 M. Goldey,  P. R. Horn,  L. D. Jacobson,  I. Kaliman,  T. Kus,  A. Landau,  
 Jie Liu,  E. I. Proynov,  R. M. Richard,  R. P. Steele,  E. J. Sundstrom,  
 H. L. Woodcock III,  P. M. Zimmerman,  D. Zuev,  B. Albrecht,  E. Alguire,  
 S. A. Baeppler,  D. Barton,  Z. Benda,  Y. A. Bernard,  E. J. Berquist,  
 K. B. Bravaya,  H. Burton,  D. Casanova,  Chun-Min Chang,  Yunqing Chen,  
 A. Chien,  K. D. Closser,  M. P. Coons,  S. Coriani,  S. Dasgupta,  
 A. L. Dempwolff,  M. Diedenhofen,  Hainam Do,  R. G. Edgar,  Po-Tung Fang,  
 S. Faraji,  S. Fatehi,  Qingguo Feng,  K. D. Fenk,  J. Fosso-Tande,  
 Qinghui Ge,  A. Ghysels,  G. Gidofalvi,  J. Gomes,  J. Gonthier,  A. Gunina,  
 D. Hait,  M. W. D. Hanson-Heine,  P. H. P. Harbach,  A. W. Hauser,  
 J. E. Herr,  E. G. Hohenstein,  Z. C. Holden,  Kerwin Hui,  B. C. Huynh,  
 T.-C. Jagau,  Hyunjun Ji,  B. Kaduk,  K. Khistyaev,  Jaehoon Kim,  
 P. Klunzinger,  K. Koh,  D. Kosenkov,  L. Koulias,  T. Kowalczyk,  
 C. M. Krauter,  A. Kunitsa,  Ka Un Lao,  A. Laurent,  K. V. Lawler,  
 Joonho Lee,  D. Lefrancois,  S. Lehtola,  D. S. Levine,  Yi-Pei Li,  
 You-Sheng Lin,  Fenglai Liu,  E. Livshits,  A. Luenser,  P. Manohar,  
 E. Mansoor,  S. F. Manzer,  Shan-Ping Mao,  Yuezhi Mao,  N. Mardirossian,  
 A. V. Marenich,  T. Markovich,  L. A. Martinez-Martinez,  S. A. Maurer,  
 N. J. Mayhall,  S. C. McKenzie,  J.-M. Mewes,  A. F. Morrison,  
 J. W. Mullinax,  K. Nanda,  T. S. Nguyen-Beck,  R. Olivares-Amaya,  
 J. A. Parkhill,  T. M. Perrine,  F. Plasser,  P. Pokhilko,  S. Prager,  
 A. Prociuk,  E. Ramos,  D. R. Rehn,  F. Rob,  M. Schneider,  N. Sergueev,  
 S. M. Sharada,  S. Sharma,  D. W. Small,  T. Stauch,  T. Stein,  
 Yu-Chuan Su,  A. J. W. Thom,  A. Tkatchenko,  T. Tsuchimochi,  N. M. Tubman,  
 L. Vogt,  M. L. Vidal,  O. Vydrov,  M. A. Watson,  J. Wenzel,  
 M. de Wergifosse,  T. A. Wesolowski,  A. White,  J. Witte,  A. Yamada,  
 Jun Yang,  K. Yao,  S. Yeganeh,  S. R. Yost,  Zhi-Qiang You,  A. Zech,  
 Igor Ying Zhang,  Xing Zhang,  Yan Zhao,  Ying Zhu,  B. R. Brooks,  
 G. K. L. Chan,  C. J. Cramer,  M. S. Gordon,  W. J. Hehre,  A. Klamt,  
 M. W. Schmidt,  C. D. Sherrill,  D. G. Truhlar,  A. Aspuru-Guzik,  R. Baer,  
 A. T. Bell,  N. A. Besley,  Jeng-Da Chai,  A. E. DePrince, III,  
 R. A. DiStasio Jr.,  A. Dreuw,  B. D. Dunietz,  T. R. Furlani,  
 Chao-Ping Hsu,  Yousung Jung,  Jing Kong,  D. S. Lambrecht,  WanZhen Liang,  
 C. Ochsenfeld,  V. A. Rassolov,  L. V. Slipchenko,  J. E. Subotnik,  
 T. Van Voorhis,  J. M. Herbert,  A. I. Krylov,  P. M. W. Gill,  M. Head-Gordon

 Contributors to earlier versions of Q-Chem not listed above: 
 R. D. Adamson,  B. Austin,  J. Baker,  G. J. O. Beran,  K. Brandhorst,  
 S. T. Brown,  E. F. C. Byrd,  A. K. Chakraborty,  C.-L. Cheng,  
 Siu Hung Chien,  D. M. Chipman,  D. L. Crittenden,  H. Dachsel,  
 R. J. Doerksen,  A. D. Dutoi,  L. Fusti-Molnar,  W. A. Goddard III,  
 A. Golubeva-Zadorozhnaya,  S. R. Gwaltney,  G. Hawkins,  A. Heyden,  
 S. Hirata,  G. Kedziora,  F. J. Keil,  C. Kelley,  Jihan Kim,  R. A. King,  
 R. Z. Khaliullin,  P. P. Korambath,  W. Kurlancheek,  A. M. Lee,  M. S. Lee,  
 S. V. Levchenko,  Ching Yeh Lin,  D. Liotard,  R. C. Lochan,  I. Lotan,  
 P. E. Maslen,  N. Nair,  D. P. O'Neill,  D. Neuhauser,  E. Neuscamman,  
 C. M. Oana,  R. Olson,  B. Peters,  R. Peverati,  P. A. Pieniazek,  
 Y. M. Rhee,  J. Ritchie,  M. A. Rohrdanz,  E. Rosta,  N. J. Russ,  
 H. F. Schaefer III,  N. E. Schultz,  N. Shenvi,  A. C. Simmonett,  A. Sodt,  
 D. Stuck,  K. S. Thanthiriwatte,  V. Vanovschi,  Tao Wang,  A. Warshel,  
 C. F. Williams,  Q. Wu,  X. Xu,  W. Zhang

 Please cite Q-Chem as follows:
 Y. Shao et al., Mol. Phys. 113, 184-215 (2015)
 DOI: 10.1080/00268976.2014.952696

 Q-Chem 5.1.1 for Intel X86 EM64T Linux

 Parts of Q-Chem use Armadillo 8.300.2 (Tropical Shenanigans).
 http://arma.sourceforge.net/

 Q-Chem begins on Sun Oct 14 05:21:37 2018  

node20
Host: 0

     Scratch files written to /scratch/krylov/qchem28397//
Core orbitals will be frozen
Input Ideriv = 0
Curr. Ideriv = -1
Max.  Ideriv = 0

Checking the input file for inconsistencies... 	...done.

--------------------------------------------------------------
User input:
--------------------------------------------------------------
$comment
Optimized Br-Bz, XAS calculation at the neutral geom (oprimized ri-MP2/cc-pVTZ)
$end

$molecule
0 1
H        -2.1434404908    0.0000000000    0.0671963029
C        -1.2132672529    0.0000000000   -0.4819994175
C        -1.2050294832    0.0000000000   -1.8750832747
H        -2.1443854307    0.0000000000   -2.4107048522
C         0.0000000000    0.0000000000   -2.5742906665
H         0.0000000000    0.0000000000   -3.6551007732
C         1.2050294832    0.0000000000   -1.8750832747
H         2.1443854307    0.0000000000   -2.4107048522
C         1.2132672529    0.0000000000   -0.4819994175
H         2.1434404908    0.0000000000    0.0671963029
C         0.0000000000    0.0000000000    0.2007961851
Br        0.0000000000    0.0000000000    2.0847967058
$end

$rem
   JOB_TYPE  =  SP
   BASIS  =  6-311(2+,+)G**
   METHOD  =  EOM-CCSD
   CVS_EE_STATES = [6,0,6,6]
   EOM_DAVIDSON_MAXVECTORS = 120
   CC_MEMORY = 80000
   cc_trans_prop = 1
   PRINT_GENERAL_BASIS = true
$end
--------------------------------------------------------------
 ----------------------------------------------------------------
             Standard Nuclear Orientation (Angstroms)
    I     Atom           X                Y                Z
 ----------------------------------------------------------------
    1      H      -2.1434404908     0.0000000000    -0.2235906397
    2      C      -1.2132672529    -0.0000000000    -0.7727863601
    3      C      -1.2050294832    -0.0000000000    -2.1658702173
    4      H      -2.1443854307    -0.0000000000    -2.7014917948
    5      C       0.0000000000    -0.0000000000    -2.8650776091
    6      H       0.0000000000    -0.0000000000    -3.9458877158
    7      C       1.2050294832    -0.0000000000    -2.1658702173
    8      H       2.1443854307    -0.0000000000    -2.7014917948
    9      C       1.2132672529    -0.0000000000    -0.7727863601
   10      H       2.1434404908    -0.0000000000    -0.2235906397
   11      C       0.0000000000    -0.0000000000    -0.0899907575
   12      Br     -0.0000000000     0.0000000000     1.7940097632
 ----------------------------------------------------------------
 Molecular Point Group                 C2v   NOp =  4
 Largest Abelian Subgroup              C2v   NOp =  4
 Nuclear Repulsion Energy =   432.5066877038 hartrees
 There are       38 alpha and       38 beta electrons
 Requested basis set is 6-311(2+,+)G(d,p)
Basis set in general basis input format:
-----------------------------------------------------------------------
$basis
H    0
S    3    1.000000
   3.38650000E+01    2.54938000E-02 
   5.09479000E+00    1.90373000E-01 
   1.15879000E+00    8.52161000E-01 
S    1    1.000000
   3.25840000E-01    1.00000000E+00 
S    1    1.000000
   1.02741000E-01    1.00000000E+00 
S    1    1.000000
   3.60000000E-02    1.00000000E+00 
P    1    1.000000
   7.50000000E-01    1.00000000E+00 
****
C    0
S    6    1.000000
   4.56324000E+03    1.96665000E-03 
   6.82024000E+02    1.52306000E-02 
   1.54973000E+02    7.61269000E-02 
   4.44553000E+01    2.60801000E-01 
   1.30290000E+01    6.16462000E-01 
   1.82773000E+00    2.21006000E-01 
SP   3    1.000000
   2.09642000E+01    1.14660000E-01   4.02487000E-02 
   4.80331000E+00    9.19999000E-01   2.37594000E-01 
   1.45933000E+00   -3.03068000E-03   8.15854000E-01 
SP   1    1.000000
   4.83456000E-01    1.00000000E+00   1.00000000E+00 
SP   1    1.000000
   1.45585000E-01    1.00000000E+00   1.00000000E+00 
SP   1    1.000000
   4.38000000E-02    1.00000000E+00   1.00000000E+00 
SP   1    1.000000
   1.31927711E-02    1.00000000E+00   1.00000000E+00 
D    1    1.000000
   6.26000000E-01    1.00000000E+00 
****
C    0
S    6    1.000000
   4.56324000E+03    1.96665000E-03 
   6.82024000E+02    1.52306000E-02 
   1.54973000E+02    7.61269000E-02 
   4.44553000E+01    2.60801000E-01 
   1.30290000E+01    6.16462000E-01 
   1.82773000E+00    2.21006000E-01 
SP   3    1.000000
   2.09642000E+01    1.14660000E-01   4.02487000E-02 
   4.80331000E+00    9.19999000E-01   2.37594000E-01 
   1.45933000E+00   -3.03068000E-03   8.15854000E-01 
SP   1    1.000000
   4.83456000E-01    1.00000000E+00   1.00000000E+00 
SP   1    1.000000
   1.45585000E-01    1.00000000E+00   1.00000000E+00 
SP   1    1.000000
   4.38000000E-02    1.00000000E+00   1.00000000E+00 
SP   1    1.000000
   1.31927711E-02    1.00000000E+00   1.00000000E+00 
D    1    1.000000
   6.26000000E-01    1.00000000E+00 
****
H    0
S    3    1.000000
   3.38650000E+01    2.54938000E-02 
   5.09479000E+00    1.90373000E-01 
   1.15879000E+00    8.52161000E-01 
S    1    1.000000
   3.25840000E-01    1.00000000E+00 
S    1    1.000000
   1.02741000E-01    1.00000000E+00 
S    1    1.000000
   3.60000000E-02    1.00000000E+00 
P    1    1.000000
   7.50000000E-01    1.00000000E+00 
****
C    0
S    6    1.000000
   4.56324000E+03    1.96665000E-03 
   6.82024000E+02    1.52306000E-02 
   1.54973000E+02    7.61269000E-02 
   4.44553000E+01    2.60801000E-01 
   1.30290000E+01    6.16462000E-01 
   1.82773000E+00    2.21006000E-01 
SP   3    1.000000
   2.09642000E+01    1.14660000E-01   4.02487000E-02 
   4.80331000E+00    9.19999000E-01   2.37594000E-01 
   1.45933000E+00   -3.03068000E-03   8.15854000E-01 
SP   1    1.000000
   4.83456000E-01    1.00000000E+00   1.00000000E+00 
SP   1    1.000000
   1.45585000E-01    1.00000000E+00   1.00000000E+00 
SP   1    1.000000
   4.38000000E-02    1.00000000E+00   1.00000000E+00 
SP   1    1.000000
   1.31927711E-02    1.00000000E+00   1.00000000E+00 
D    1    1.000000
   6.26000000E-01    1.00000000E+00 
****
H    0
S    3    1.000000
   3.38650000E+01    2.54938000E-02 
   5.09479000E+00    1.90373000E-01 
   1.15879000E+00    8.52161000E-01 
S    1    1.000000
   3.25840000E-01    1.00000000E+00 
S    1    1.000000
   1.02741000E-01    1.00000000E+00 
S    1    1.000000
   3.60000000E-02    1.00000000E+00 
P    1    1.000000
   7.50000000E-01    1.00000000E+00 
****
C    0
S    6    1.000000
   4.56324000E+03    1.96665000E-03 
   6.82024000E+02    1.52306000E-02 
   1.54973000E+02    7.61269000E-02 
   4.44553000E+01    2.60801000E-01 
   1.30290000E+01    6.16462000E-01 
   1.82773000E+00    2.21006000E-01 
SP   3    1.000000
   2.09642000E+01    1.14660000E-01   4.02487000E-02 
   4.80331000E+00    9.19999000E-01   2.37594000E-01 
   1.45933000E+00   -3.03068000E-03   8.15854000E-01 
SP   1    1.000000
   4.83456000E-01    1.00000000E+00   1.00000000E+00 
SP   1    1.000000
   1.45585000E-01    1.00000000E+00   1.00000000E+00 
SP   1    1.000000
   4.38000000E-02    1.00000000E+00   1.00000000E+00 
SP   1    1.000000
   1.31927711E-02    1.00000000E+00   1.00000000E+00 
D    1    1.000000
   6.26000000E-01    1.00000000E+00 
****
H    0
S    3    1.000000
   3.38650000E+01    2.54938000E-02 
   5.09479000E+00    1.90373000E-01 
   1.15879000E+00    8.52161000E-01 
S    1    1.000000
   3.25840000E-01    1.00000000E+00 
S    1    1.000000
   1.02741000E-01    1.00000000E+00 
S    1    1.000000
   3.60000000E-02    1.00000000E+00 
P    1    1.000000
   7.50000000E-01    1.00000000E+00 
****
C    0
S    6    1.000000
   4.56324000E+03    1.96665000E-03 
   6.82024000E+02    1.52306000E-02 
   1.54973000E+02    7.61269000E-02 
   4.44553000E+01    2.60801000E-01 
   1.30290000E+01    6.16462000E-01 
   1.82773000E+00    2.21006000E-01 
SP   3    1.000000
   2.09642000E+01    1.14660000E-01   4.02487000E-02 
   4.80331000E+00    9.19999000E-01   2.37594000E-01 
   1.45933000E+00   -3.03068000E-03   8.15854000E-01 
SP   1    1.000000
   4.83456000E-01    1.00000000E+00   1.00000000E+00 
SP   1    1.000000
   1.45585000E-01    1.00000000E+00   1.00000000E+00 
SP   1    1.000000
   4.38000000E-02    1.00000000E+00   1.00000000E+00 
SP   1    1.000000
   1.31927711E-02    1.00000000E+00   1.00000000E+00 
D    1    1.000000
   6.26000000E-01    1.00000000E+00 
****
H    0
S    3    1.000000
   3.38650000E+01    2.54938000E-02 
   5.09479000E+00    1.90373000E-01 
   1.15879000E+00    8.52161000E-01 
S    1    1.000000
   3.25840000E-01    1.00000000E+00 
S    1    1.000000
   1.02741000E-01    1.00000000E+00 
S    1    1.000000
   3.60000000E-02    1.00000000E+00 
P    1    1.000000
   7.50000000E-01    1.00000000E+00 
****
C    0
S    6    1.000000
   4.56324000E+03    1.96665000E-03 
   6.82024000E+02    1.52306000E-02 
   1.54973000E+02    7.61269000E-02 
   4.44553000E+01    2.60801000E-01 
   1.30290000E+01    6.16462000E-01 
   1.82773000E+00    2.21006000E-01 
SP   3    1.000000
   2.09642000E+01    1.14660000E-01   4.02487000E-02 
   4.80331000E+00    9.19999000E-01   2.37594000E-01 
   1.45933000E+00   -3.03068000E-03   8.15854000E-01 
SP   1    1.000000
   4.83456000E-01    1.00000000E+00   1.00000000E+00 
SP   1    1.000000
   1.45585000E-01    1.00000000E+00   1.00000000E+00 
SP   1    1.000000
   4.38000000E-02    1.00000000E+00   1.00000000E+00 
SP   1    1.000000
   1.31927711E-02    1.00000000E+00   1.00000000E+00 
D    1    1.000000
   6.26000000E-01    1.00000000E+00 
****
Br   0
S    6    1.000000
   4.39700000E+05    8.13000000E-04 
   6.60300000E+04    6.28500000E-03 
   1.51400000E+04    3.19200000E-02 
   4.31700000E+03    1.28800000E-01 
   1.41400000E+03    3.94600000E-01 
   5.23900000E+02    5.41300000E-01 
S    3    1.000000
   5.23900000E+02    1.83100000E-01 
   2.07700000E+02    6.17600000E-01 
   8.65400000E+01    2.53800000E-01 
S    1    1.000000
   3.05200000E+01    1.00000000E+00 
S    1    1.000000
   1.29800000E+01    1.00000000E+00 
S    1    1.000000
   4.41200000E+00    1.00000000E+00 
S    1    1.000000
   1.86200000E+00    1.00000000E+00 
S    1    1.000000
   3.93200000E-01    1.00000000E+00 
S    1    1.000000
   1.40000000E-01    1.00000000E+00 
P    3    1.000000
   2.95700000E+03    2.22600000E-02 
   7.00300000E+02    1.80200000E-01 
   2.24600000E+02    8.62400000E-01 
P    3    1.000000
   8.25900000E+01    3.44000000E-01 
   3.31900000E+01    5.07100000E-01 
   1.42000000E+01    2.59000000E-01 
P    3    1.000000
   1.42000000E+01    7.96500000E-02 
   7.43800000E+00    3.73400000E-01 
   3.52600000E+00    6.04900000E-01 
P    1    1.000000
   1.59500000E+00    1.00000000E+00 
P    1    1.000000
   8.46200000E-01    1.00000000E+00 
P    1    1.000000
   3.18600000E-01    1.00000000E+00 
P    1    1.000000
   1.09600000E-01    1.00000000E+00 
D    4    1.000000
   1.34800000E+02    1.83100000E-02 
   3.63900000E+01    1.35000000E-01 
   1.21600000E+01    4.26100000E-01 
   4.34100000E+00    6.04300000E-01 
D    1    1.000000
   1.53500000E+00    1.00000000E+00 
SP   1    1.000000
   3.90000000E-02    1.00000000E+00   1.00000000E+00 
SP   1    1.000000
   1.17469880E-02    1.00000000E+00   1.00000000E+00 
D    1    1.000000
   4.15000000E-01    1.00000000E+00 
****
$end
-----------------------------------------------------------------------
 There are 87 shells and 243 basis functions
MEM_TOTAL is adjusted to CC_MEMORY + MEM_STATIC!
 Total memory of 80192MB is distributed as follows: 
   QALLOC including MEM_STATIC uses 192MB
   MEM_STATIC is set to 192MB
   CCMAN JOB total memory use is  80000MB
 Warning: actual memory use might exceed 80192MB

 Total QAlloc Memory Limit    192 MB
 Mega-Array Size       188 MB
 MEM_STATIC part       192 MB

                       Distance Matrix (Angstroms)
             H (  1)   C (  2)   C (  3)   H (  4)   C (  5)   H (  6)
   C (  2)  1.080203
   C (  3)  2.157096  1.393108
   H (  4)  2.477901  2.141702  1.081333
   C (  5)  3.401733  2.418615  1.393193  2.150616
   H (  6)  4.295327  3.397144  2.149548  2.479296  1.080810
   C (  7)  3.871008  2.790850  2.410059  3.391972  1.393193  2.149548
   H (  8)  4.952317  3.872175  3.391972  4.288771  2.150616  2.479296
   C (  9)  3.401338  2.426535  2.790850  3.872175  2.418615  3.397144
   H ( 10)  4.286881  3.401338  3.871008  4.952317  3.401733  4.295327
   C ( 11)  2.147600  1.392202  2.400286  3.379101  2.775087  3.855897
   Br( 12)  2.943645  2.839095  4.139172  4.980755  4.659087  5.739897
             C (  7)   H (  8)   C (  9)   H ( 10)   C ( 11)
   H (  8)  1.081333
   C (  9)  1.393108  2.141702
   H ( 10)  2.157096  2.477901  1.080203
   C ( 11)  2.400286  3.379101  1.392202  2.147600
   Br( 12)  4.139172  4.980755  2.839095  2.943645  1.884001

 A cutoff of  1.0D-14 yielded   3575 shell pairs
 There are     28675 function pairs (     30835 Cartesian)

 -------------------------------------------------------
 OpenMP Integral Computing Module                       
 Release: version 1.0, May 2013, Q-Chem Inc. Pittsburgh 
 -------------------------------------------------------
 Integral Job Info:
 Integral job number is                      11
 Integral operator is                         1
 short-range coefficients                     0
 long-range coefficients              100000000
 Omega coefficients                           0
 if combine SR and LR in K                    0
 Integral screening is                        0
 Integral computing path is                   2
 max size of driver memory is            800000
 size of driver memory is                593474
 size of scratch memory is             29623520
 max col of scratch BK array               1296
 max len of scratch array in speh3          155
 max len of scratch index in speh4           18
 max int batch size is                      520
 min int batch size is                       52
 fixed nKL is                                45
 max L of basis functions is                  2
 order of int derivative is                   0
 number of shells is                         87
 number of basis is                         252
 number of cartesian basis is               252
 number of contracted shell pairs          3575
 number of primitive shell pairs           8681
 maxK2 (contraction) of shell pair           36
 max number of K2 of shell pair               1
 max number of CS2 of shell pair            565
 max number of PS2 of shell pair           1092
 mem total for path MDJ                  548620
 -------------------------------------------------------
 Smallest overlap matrix eigenvalue = 9.85E-09
 Linear dependence detected in AO basis
 Tighter screening thresholds may be required for diffuse basis sets
 Use S2THRESH > 14 and THRESH = 14 in case of SCF convergence issues
 Number of orthogonalized atomic orbitals = 236
 Maximum deviation from orthogonality = 4.635E-11

 Scale SEOQF with 1.000000e-01/1.000000e-01/1.000000e-01

 Standard Electronic Orientation quadrupole field applied
 Nucleus-field energy     =    -0.0000000255 hartrees
 Guess from superposition of atomic densities
 Warning:  Energy on first SCF cycle will be non-variational
 SAD guess density has 76.000000 electrons

 -----------------------------------------------------------------------
  General SCF calculation program by
  Eric Jon Sundstrom, Paul Horn, Yuezhi Mao, Dmitri Zuev, Alec White,
  David Stuck, Shaama M.S., Shane Yost, Joonho Lee, David Small,
  Daniel Levine, Susi Lehtola, Hugh Burton, Evgeny Epifanovsky
 -----------------------------------------------------------------------
 Hartree-Fock
 using 8 threads for integral computing
 -------------------------------------------------------
 OpenMP Integral computing Module                
 Release: version 2.0, May 2017, Q-Chem Inc. Pleasanton 
 -------------------------------------------------------
 A restricted SCF calculation will be
 performed using DIIS
 SCF converges when DIIS error is below 1.0e-08
 ---------------------------------------
  Cycle       Energy         DIIS error
 ---------------------------------------
    1   -2805.2837661025      4.05e-02  
    2   -2802.4592879750      2.78e-03  
    3   -2802.5267438132      1.25e-03  
    4   -2802.5367437008      5.74e-04  
    5   -2802.5396728793      1.01e-04  
    6   -2802.5397686873      3.23e-05  
    7   -2802.5397852907      1.16e-05  
    8   -2802.5397882477      4.79e-06  
    9   -2802.5397888492      2.04e-06  
   10   -2802.5397889387      9.14e-07  
   11   -2802.5397889980      3.04e-07  
   12   -2802.5397889891      7.79e-08  
   13   -2802.5397889926      2.35e-08  
   14   -2802.5397889930      5.25e-09  Convergence criterion met
 ---------------------------------------
 SCF time:   CPU 84.11s  wall 12.00s 
 SCF   energy in the final basis set =    -2802.5397889930
 Total energy in the final basis set =    -2802.5397889930


 ------------------------------------------------------------------------------

   CCMAN2: suite of methods based on coupled cluster
           and equation of motion theories.

   Components:
   * libvmm-1.3-trunk
     by Evgeny Epifanovsky, Ilya Kaliman.
   * libtensor-2.5-trunk
     by Evgeny Epifanovsky, Michael Wormit, Dmitry Zuev, Sam Manzer, 
        Ilya Kaliman.
   * libcc-2.5-trunk
     by Evgeny Epifanovsky, Arik Landau, Tomasz Kus, Kirill Khistyaev, 
        Dmitry Zuev, Prashant Manohar, Xintian Feng, Anna Krylov, 
        Matthew Goldey, Alec White, Thomas Jagau, Kaushik Nanda, 
        Anastasia Gunina, Alexander Kunitsa, Joonho Lee.

   CCMAN original authors:
   Anna I. Krylov, C. David Sherrill, Steven R. Gwaltney,
   Edward F. C. Byrd (2000)
   Sergey V. Levchenko, Lyudmila V. Slipchenko, Tao Wang,
   Ana-Maria C. Cristian (2003)
   Piotr A. Pieniazek, C. Melania Oana, Evgeny Epifanovsky (2007)
   Prashant Manohar (2009)

 ------------------------------------------------------------------------------


 Allocating and initializing 80000MB of RAM...
 Calculation will run on 8 cores.


 Alpha MOs, Restricted
 -- Occupied --                  
-490.03  -65.16  -58.52  -58.52  -58.52  -11.30  -11.26  -11.26
  1 A1    2 A1    3 A1    1 B2    1 B1    4 A1    2 B1    5 A1                 
-11.253 -11.253 -11.250  -9.840  -7.454  -7.445  -7.445  -3.193
  6 A1    3 B1    7 A1    8 A1    9 A1    4 B1    2 B2   10 A1                 
 -3.189  -3.189  -3.179  -3.179  -1.180  -1.077  -1.036  -0.977
  3 B2    5 B1   11 A1    1 A2   12 A1   13 A1    6 B1   14 A1                 
 -0.849  -0.820  -0.714  -0.648  -0.647  -0.608  -0.578  -0.535
  7 B1   15 A1   16 A1    8 B1   17 A1    9 B1   18 A1    4 B2                 
 -0.518  -0.496  -0.440  -0.417  -0.354  -0.335
 10 B1   19 A1    5 B2   11 B1    2 A2    6 B2                                 
 -- Virtual --                   
  0.013   0.020   0.020   0.026   0.029   0.030   0.037   0.040
 20 A1   12 B1   21 A1    7 B2   13 B1   22 A1   23 A1    8 B2                 
  0.043   0.047   0.048   0.054   0.055   0.059   0.063   0.065
  3 A2   14 B1   24 A1    9 B2    4 A2   25 A1   15 B1   26 A1                 
  0.067   0.067   0.069   0.069   0.076   0.082   0.087   0.091
 16 B1   10 B2   27 A1   11 B2   17 B1   28 A1   29 A1   18 B1                 
  0.100   0.101   0.101   0.119   0.123   0.140   0.156   0.165
 12 B2    5 A2   30 A1   19 B1   31 A1   32 A1   13 B2   20 B1                 
  0.174   0.177   0.179   0.196   0.198   0.203   0.207   0.214
 14 B2   33 A1    6 A2   34 A1   21 B1   35 A1   15 B2   36 A1                 
  0.223   0.225   0.229   0.229   0.231   0.242   0.245   0.248
 22 B1   16 B2   37 A1   23 B1    7 A2   38 A1   17 B2   24 B1                 
  0.252   0.254   0.264   0.278   0.289   0.294   0.314   0.337
 39 A1   25 B1   40 A1   41 A1   26 B1   27 B1   42 A1   28 B1                 
  0.342   0.353   0.378   0.413   0.416   0.433   0.442   0.487
 43 A1   18 B2   44 A1   45 A1   29 B1   30 B1   46 A1   47 A1                 
  0.494   0.512   0.513   0.607   0.615   0.619   0.645   0.647
 31 B1   32 B1   48 A1   49 A1   33 B1   19 B2   34 B1   50 A1                 
  0.717   0.734   0.736   0.738   0.743   0.748   0.766   0.775
 51 A1   35 B1   20 B2   36 B1   52 A1   21 B2    8 A2   53 A1                 
  0.787   0.788   0.805   0.829   0.835   0.866   0.892   0.898
  9 A2   37 B1   22 B2   10 A2   54 A1   23 B2   55 A1   56 A1                 
  0.925   0.926   0.939   0.940   0.967   0.999   1.012   1.035
 24 B2   38 B1   57 A1   39 B1   58 A1   59 A1   40 B1   60 A1                 
  1.064   1.078   1.119   1.125   1.125   1.126   1.189   1.202
 41 B1   61 A1   62 A1   42 B1   63 A1   43 B1   44 B1   25 B2                 
  1.212   1.230   1.289   1.301   1.308   1.345   1.374   1.499
 64 A1   11 A2   65 A1   45 B1   12 A2   26 B2   13 A2   66 A1                 
  1.525   1.615   1.725   1.785   1.787   1.818   1.823   1.831
 27 B2   67 A1   46 B1   47 B1   68 A1   69 A1   28 B2   14 A2                 
  1.881   1.907   1.909   1.949   1.995   2.006   2.042   2.104
 29 B2   70 A1   48 B1   71 A1   49 B1   30 B2   15 A2   50 B1                 
  2.151   2.217   2.218   2.219   2.235   2.248   2.272   2.322
 72 A1   51 B1   31 B2   16 A2   52 B1   73 A1   32 B2   74 A1                 
  2.346   2.354   2.366   2.375   2.443   2.594   2.616   2.645
 75 A1   53 B1   17 A2   33 B2   54 B1   34 B2   76 A1   18 A2                 
  2.679   2.744   2.798   2.803   2.857   2.951   2.974   3.012
 55 B1   77 A1   78 A1   56 B1   57 B1   79 A1   80 A1   81 A1                 
  3.020   3.023   3.038   3.041   3.069   3.164   3.186   3.193
 58 B1   82 A1   83 A1   59 B1   35 B2   84 A1   36 B2   19 A2                 
  3.194   3.280   3.287   3.319   3.472   3.536   3.563   3.759
 60 B1   37 B2   20 A2   61 B1   38 B2   85 A1   62 B1   63 B1                 
  3.784   3.902   3.924   4.027   4.165   4.399   4.454   4.535
 86 A1   64 B1   87 A1   88 A1   89 A1   65 B1   90 A1   91 A1                 
  4.558   4.558   4.613   4.637   4.789   4.975   5.261   7.392
 21 A2   66 B1   92 A1   39 B2   67 B1   93 A1   68 B1   94 A1                 
  8.256   8.348   8.437  24.688  25.080  25.128  25.226  25.250
 40 B2   69 B1   95 A1   96 A1   97 A1   70 B1   98 A1   71 B1                 
 25.345  49.624 293.938 294.032 294.1471028.597
 99 A1  100 A1   41 B2   72 B1  101 A1  102 A1                                 

 Beta MOs, Restricted
 -- Occupied --                  
-490.03  -65.16  -58.52  -58.52  -58.52  -11.30  -11.26  -11.26
  1 A1    2 A1    3 A1    1 B2    1 B1    4 A1    2 B1    5 A1                 
-11.253 -11.253 -11.250  -9.840  -7.454  -7.445  -7.445  -3.193
  6 A1    3 B1    7 A1    8 A1    9 A1    4 B1    2 B2   10 A1                 
 -3.189  -3.189  -3.179  -3.179  -1.180  -1.077  -1.036  -0.977
  3 B2    5 B1   11 A1    1 A2   12 A1   13 A1    6 B1   14 A1                 
 -0.849  -0.820  -0.714  -0.648  -0.647  -0.608  -0.578  -0.535
  7 B1   15 A1   16 A1    8 B1   17 A1    9 B1   18 A1    4 B2                 
 -0.518  -0.496  -0.440  -0.417  -0.354  -0.335
 10 B1   19 A1    5 B2   11 B1    2 A2    6 B2                                 
 -- Virtual --                   
  0.013   0.020   0.020   0.026   0.029   0.030   0.037   0.040
 20 A1   12 B1   21 A1    7 B2   13 B1   22 A1   23 A1    8 B2                 
  0.043   0.047   0.048   0.054   0.055   0.059   0.063   0.065
  3 A2   14 B1   24 A1    9 B2    4 A2   25 A1   15 B1   26 A1                 
  0.067   0.067   0.069   0.069   0.076   0.082   0.087   0.091
 16 B1   10 B2   27 A1   11 B2   17 B1   28 A1   29 A1   18 B1                 
  0.100   0.101   0.101   0.119   0.123   0.140   0.156   0.165
 12 B2    5 A2   30 A1   19 B1   31 A1   32 A1   13 B2   20 B1                 
  0.174   0.177   0.179   0.196   0.198   0.203   0.207   0.214
 14 B2   33 A1    6 A2   34 A1   21 B1   35 A1   15 B2   36 A1                 
  0.223   0.225   0.229   0.229   0.231   0.242   0.245   0.248
 22 B1   16 B2   37 A1   23 B1    7 A2   38 A1   17 B2   24 B1                 
  0.252   0.254   0.264   0.278   0.289   0.294   0.314   0.337
 39 A1   25 B1   40 A1   41 A1   26 B1   27 B1   42 A1   28 B1                 
  0.342   0.353   0.378   0.413   0.416   0.433   0.442   0.487
 43 A1   18 B2   44 A1   45 A1   29 B1   30 B1   46 A1   47 A1                 
  0.494   0.512   0.513   0.607   0.615   0.619   0.645   0.647
 31 B1   32 B1   48 A1   49 A1   33 B1   19 B2   34 B1   50 A1                 
  0.717   0.734   0.736   0.738   0.743   0.748   0.766   0.775
 51 A1   35 B1   20 B2   36 B1   52 A1   21 B2    8 A2   53 A1                 
  0.787   0.788   0.805   0.829   0.835   0.866   0.892   0.898
  9 A2   37 B1   22 B2   10 A2   54 A1   23 B2   55 A1   56 A1                 
  0.925   0.926   0.939   0.940   0.967   0.999   1.012   1.035
 24 B2   38 B1   57 A1   39 B1   58 A1   59 A1   40 B1   60 A1                 
  1.064   1.078   1.119   1.125   1.125   1.126   1.189   1.202
 41 B1   61 A1   62 A1   42 B1   63 A1   43 B1   44 B1   25 B2                 
  1.212   1.230   1.289   1.301   1.308   1.345   1.374   1.499
 64 A1   11 A2   65 A1   45 B1   12 A2   26 B2   13 A2   66 A1                 
  1.525   1.615   1.725   1.785   1.787   1.818   1.823   1.831
 27 B2   67 A1   46 B1   47 B1   68 A1   69 A1   28 B2   14 A2                 
  1.881   1.907   1.909   1.949   1.995   2.006   2.042   2.104
 29 B2   70 A1   48 B1   71 A1   49 B1   30 B2   15 A2   50 B1                 
  2.151   2.217   2.218   2.219   2.235   2.248   2.272   2.322
 72 A1   51 B1   31 B2   16 A2   52 B1   73 A1   32 B2   74 A1                 
  2.346   2.354   2.366   2.375   2.443   2.594   2.616   2.645
 75 A1   53 B1   17 A2   33 B2   54 B1   34 B2   76 A1   18 A2                 
  2.679   2.744   2.798   2.803   2.857   2.951   2.974   3.012
 55 B1   77 A1   78 A1   56 B1   57 B1   79 A1   80 A1   81 A1                 
  3.020   3.023   3.038   3.041   3.069   3.164   3.186   3.193
 58 B1   82 A1   83 A1   59 B1   35 B2   84 A1   36 B2   19 A2                 
  3.194   3.280   3.287   3.319   3.472   3.536   3.563   3.759
 60 B1   37 B2   20 A2   61 B1   38 B2   85 A1   62 B1   63 B1                 
  3.784   3.902   3.924   4.027   4.165   4.399   4.454   4.535
 86 A1   64 B1   87 A1   88 A1   89 A1   65 B1   90 A1   91 A1                 
  4.558   4.558   4.613   4.637   4.789   4.975   5.261   7.392
 21 A2   66 B1   92 A1   39 B2   67 B1   93 A1   68 B1   94 A1                 
  8.256   8.348   8.437  24.688  25.080  25.128  25.226  25.250
 40 B2   69 B1   95 A1   96 A1   97 A1   70 B1   98 A1   71 B1                 
 25.345  49.624 293.938 294.032 294.1471028.597
 99 A1  100 A1   41 B2   72 B1  101 A1  102 A1                                 

 Occupation and symmetry of molecular orbitals

 Point group: C2v (4 irreducible representations).

                           A1   A2   B1   B2    All 
 ----------------------------------------------------
 All molecular orbitals:
  - Alpha                  102  21   72   41    236 
  - Beta                   102  21   72   41    236 
 ----------------------------------------------------
 Alpha orbitals:
  - Frozen occupied        9    0    4    2     15  
  - Active occupied        10   2    7    4     23  
  - Active virtual         83   19   61   35    198 
  - Frozen virtual         0    0    0    0     0   
 ----------------------------------------------------
 Beta orbitals:
  - Frozen occupied        9    0    4    2     15  
  - Active occupied        10   2    7    4     23  
  - Active virtual         83   19   61   35    198 
  - Frozen virtual         0    0    0    0     0   
 ----------------------------------------------------

 Import integrals:   CPU 0.00 s  wall 0.00 s

 Import integrals:   CPU 402.54 s  wall 62.89 s

 MP2 amplitudes:   CPU 4.86 s  wall 4.06 s

Running a double precision version
           CCSD T amplitudes will be solved using DIIS.

           Start     Size      MaxIter   EConv     TConv     
           3         7         100       1.00e-06  1.00e-04  
 ------------------------------------------------------------------------------
           Energy (a.u.)   Ediff      Tdiff       Comment
 ------------------------------------------------------------------------------
         -2803.64444833                           
     1   -2803.62954330   1.49e-02   1.01e+00     
     2   -2803.66258613   3.30e-02   1.39e-01     
     3   -2803.66234152   2.45e-04   4.80e-02     
     4   -2803.66527352   2.93e-03   1.42e-02     Switched to DIIS steps.
     5   -2803.66628698   1.01e-03   1.18e-02     
     6   -2803.66630934   2.24e-05   2.18e-03     
     7   -2803.66629782   1.15e-05   1.05e-03     
     8   -2803.66629817   3.49e-07   2.04e-04     
     9   -2803.66629815   2.58e-08   7.68e-05     
 ------------------------------------------------------------------------------
         -2803.66629815                           CCSD T converged.

End of double precision
 SCF energy                 = -2802.53978899
 MP2 energy                 = -2803.64444833
 CCSD correlation energy     =    -1.12650915
 CCSD total energy           = -2803.66629815

 CCSD  T1^2 = 0.0082  T2^2 = 0.4083  Leading amplitudes:

 Amplitude    Orbitals with energies
 -0.0179       2 (A2) A                  ->    8 (A2) A                   
              -0.3538                          0.7661                     
 -0.0179       2 (A2) B                  ->    8 (A2) B                   
              -0.3538                          0.7661                     
  0.0131       4 (B2) A                  ->    21 (B2) A                  
              -0.5346                          0.7475                     
  0.0131       4 (B2) B                  ->    21 (B2) B                  
              -0.5346                          0.7475                     

 Amplitude    Orbitals with energies
 -0.0689       2 (A2) A      2 (A2) B    ->    5 (A2) A      5 (A2) B     
              -0.3538       -0.3538            0.1009        0.1009       
  0.0689       2 (A2) A      2 (A2) B    ->    5 (A2) B      5 (A2) A     
              -0.3538       -0.3538            0.1009        0.1009       
  0.0689       2 (A2) B      2 (A2) A    ->    5 (A2) A      5 (A2) B     
              -0.3538       -0.3538            0.1009        0.1009       
 -0.0689       2 (A2) B      2 (A2) A    ->    5 (A2) B      5 (A2) A     
              -0.3538       -0.3538            0.1009        0.1009       

 Computing CCSD intemediates for later calculations in double precision
 Finished.

Running a double precision version
           CCSD Lambda amplitudes will be solved using DIIS.
           Start     Size      MaxIter   EConv     LConv     
           3         7         100       1.00e-06  1.00e-04  
 ------------------------------------------------------------------------------
            Enorm      Ldiff       Comment
 ------------------------------------------------------------------------------
     1     5.79e-02   4.61e-02     
     2     1.05e-02   1.03e-03     
     3     3.57e-03   1.84e-03     
     4     1.45e-03   2.98e-04     Switched to DIIS steps.
     5     4.38e-04   3.19e-04     
     6     1.99e-04   6.95e-05     
     7     5.55e-05   2.51e-05     
     8     2.25e-05   4.57e-06     
     9     7.44e-06   9.35e-07     
    10     2.99e-06   7.68e-09     
    11     1.19e-06   7.05e-08     
    12     4.22e-07   7.52e-08     
 ------------------------------------------------------------------------------
                                   CCSD Lambda converged.

 CCSD calculation:   CPU 1438.02 s  wall 213.07 s

        Solving for CVS-EOMEE-CCSD A1 singlet states.

        CVS-EOMEE-CCSD/MP2 right amplitudes will be solved using Davidson.
        Amplitudes will be solved using standard  algorithm.
     Hard-coded thresholds: 
     LinDepThresh=1.00e-15  NormThresh=1.00e-06  ReorthogonThresh=1.00e-02

      Roots     MaxVec    MaxIter   Precond   Conv      Shift    
      6         120       60        1         1.00e-05  0.00e+00  
 ------------------------------------------------------------------------------
      Iter ConvRoots NVecs ResNorm Current eigenvalues (eV)
 ------------------------------------------------------------------------------
      0    0      6     3.06e+00   201.0594   201.2372   201.3074   201.5659   201.8923   202.1325   
      1    0      12    1.02e+01   200.5486   200.7221   200.7918   201.0524   201.3756   201.6184   
      2    0      18    1.46e-01   191.2261   191.3210   191.3875   191.5667   191.9046   192.1262   
      3    0      24    8.87e-03   190.7545   190.9559   190.9920   191.1566   191.5514   191.7525   
      4    0      30    1.37e-02   190.6223   190.8959   190.9235   191.0436   191.5081   191.7014   
      5    0      36    6.95e-02   189.7274   190.4134   190.7640   190.7960   191.4616   191.5675   
      6    0      42    2.43e-02   188.7254   189.9869   190.5171   190.5624   191.3327   191.3638   
      7    0      48    8.82e-03   188.4429   189.9420   190.4702   190.5376   191.3002   191.3205   
      8    0      54    1.03e-02   188.0584   189.9090   190.4194   190.5286   191.2094   191.2995   
      9    0      60    5.75e-03   187.9190   189.8895   190.3040   190.5253   191.1014   191.2904   
      10   0      66    1.10e-02   187.9027   189.8828   190.1267   190.5234   190.9480   191.0780   
      11   0      72    2.21e-03   187.9002   189.8783   190.0099   190.5221   190.8233   191.0680   
      12   0      78    5.04e-03   187.8988   189.8690   189.9093   190.5216   190.7346   191.0602   
      13   0      84    8.08e-04   187.8985   189.8228   189.8860   190.5211   190.6862   191.0530   
Found complex roots...
      14   1      90    3.88e-04   187.8983*  189.8121   189.8848   190.5209   190.6765   191.0501   
      15   2      95    1.35e-04   187.8984*  189.8085   189.8845   190.5209*  190.6726   191.0480   
      16   2      99    1.50e-04   187.8984*  189.8047   189.8842   190.5209*  190.6682   191.0473   
      17   3      103   6.89e-05   187.8984*  189.8033   189.8840*  190.5208*  190.6668   191.0461   
      18   3      106   4.14e-05   187.8984*  189.8034   189.8840*  190.5208*  190.6656   191.0458   
      19   3      109   2.30e-05   187.8984*  189.8027   189.8840*  190.5208*  190.6643   191.0454   
      20   3      112   1.55e-05   187.8984*  189.8021   189.8840*  190.5208*  190.6632   191.0455   
      21   5      115   9.91e-06   187.8984*  189.8021*  189.8840*  190.5207*  190.6627   191.0452*  
      22   5      116   4.39e-06   187.8984*  189.8021*  189.8840*  190.5207*  190.6628   191.0452*  
      23   6      117   3.24e-06   187.8984*  189.8021*  189.8840*  190.5207*  190.6628*  191.0452*  

     Davidson procedure converged

 EOMEE transition 1/A1
 Total energy = -2796.76115958 a.u.  Excitation energy = 187.8984 eV.
 R0^2 = 0.0000  R1^2 = 0.9053  R2_CCVV^2 = 0.0017  R2_COVV^2 = 0.0465  Res^2 = 1.72e-06
 Conv-d = yes

 Amplitude    Transitions between orbitals
  0.3378       9 (A1) A                  ->    32 (A1) A                  
  0.3378       9 (A1) B                  ->    32 (A1) B                  
  0.2751       9 (A1) A                  ->    31 (A1) A                  
  0.2751       9 (A1) B                  ->    31 (A1) B                  
 -0.2613       9 (A1) A                  ->    36 (A1) A                  
 -0.2613       9 (A1) B                  ->    36 (A1) B                  
 -0.2162       9 (A1) A                  ->    34 (A1) A                  
 -0.2162       9 (A1) B                  ->    34 (A1) B                  
 -0.1926       9 (A1) A                  ->    28 (A1) A                  
 -0.1926       9 (A1) B                  ->    28 (A1) B                  
 -0.1279       9 (A1) A                  ->    30 (A1) A                  
 -0.1279       9 (A1) B                  ->    30 (A1) B                  
  0.1259       9 (A1) A                  ->    39 (A1) A                  
  0.1259       9 (A1) B                  ->    39 (A1) B                  

              Summary of significant orbitals:

               Number  Type             Irrep      Energy
               13      Occ  Alpha       9 (A1)     -7.4538
               13      Occ  Beta        9 (A1)     -7.4538
               60      Vir  Alpha      28 (A1)      0.0817
               65      Vir  Alpha      30 (A1)      0.1014
               67      Vir  Alpha      31 (A1)      0.1233
               68      Vir  Alpha      32 (A1)      0.1397
               74      Vir  Alpha      34 (A1)      0.1956
               78      Vir  Alpha      36 (A1)      0.2140
               87      Vir  Alpha      39 (A1)      0.2523
               60      Vir  Beta       28 (A1)      0.0817
               65      Vir  Beta       30 (A1)      0.1014
               67      Vir  Beta       31 (A1)      0.1233
               68      Vir  Beta       32 (A1)      0.1397
               74      Vir  Beta       34 (A1)      0.1956
               78      Vir  Beta       36 (A1)      0.2140
               87      Vir  Beta       39 (A1)      0.2523


 EOMEE transition 2/A1
 Total energy = -2796.69119997 a.u.  Excitation energy = 189.8021 eV.
 R0^2 = 0.0000  R1^2 = 0.8754  R2_CCVV^2 = 0.0017  R2_COVV^2 = 0.0615  Res^2 = 7.42e-07
 Conv-d = yes

 Amplitude    Transitions between orbitals
 -0.5735       2 (B2) A                  ->    12 (B2) A                  
 -0.5735       2 (B2) B                  ->    12 (B2) B                  
  0.1363       2 (B2) A                  ->    7 (B2) A                   
  0.1363       2 (B2) B                  ->    7 (B2) B                   
  0.1297       2 (B2) A                  ->    16 (B2) A                  
  0.1297       2 (B2) B                  ->    16 (B2) B                  
 -0.1099       2 (B2) A                  ->    10 (B2) A                  
 -0.1099       2 (B2) B                  ->    10 (B2) B                  

              Summary of significant orbitals:

               Number  Type             Irrep      Energy
               15      Occ  Alpha       2 (B2)     -7.4453
               15      Occ  Beta        2 (B2)     -7.4453
               42      Vir  Alpha       7 (B2)      0.0260
               56      Vir  Alpha      10 (B2)      0.0668
               63      Vir  Alpha      12 (B2)      0.0997
               80      Vir  Alpha      16 (B2)      0.2251
               42      Vir  Beta        7 (B2)      0.0260
               56      Vir  Beta       10 (B2)      0.0668
               63      Vir  Beta       12 (B2)      0.0997
               80      Vir  Beta       16 (B2)      0.2251


 EOMEE transition 3/A1
 Total energy = -2796.68819092 a.u.  Excitation energy = 189.8840 eV.
 R0^2 = 0.0000  R1^2 = 0.8947  R2_CCVV^2 = 0.0017  R2_COVV^2 = 0.0518  Res^2 = 3.40e-07
 Conv-d = yes

 Amplitude    Transitions between orbitals
 -0.3335       9 (A1) A                  ->    26 (A1) A                  
 -0.3335       9 (A1) B                  ->    26 (A1) B                  
 -0.2814       9 (A1) A                  ->    20 (A1) A                  
 -0.2814       9 (A1) B                  ->    20 (A1) B                  
 -0.2728       9 (A1) A                  ->    21 (A1) A                  
 -0.2728       9 (A1) B                  ->    21 (A1) B                  
  0.2197       9 (A1) A                  ->    33 (A1) A                  
  0.2197       9 (A1) B                  ->    33 (A1) B                  
 -0.2106       9 (A1) A                  ->    25 (A1) A                  
 -0.2106       9 (A1) B                  ->    25 (A1) B                  
 -0.1353       2 (B2) A                  ->    12 (B2) A                  
 -0.1353       2 (B2) B                  ->    12 (B2) B                  

              Summary of significant orbitals:

               Number  Type             Irrep      Energy
               13      Occ  Alpha       9 (A1)     -7.4538
               15      Occ  Alpha       2 (B2)     -7.4453
               13      Occ  Beta        9 (A1)     -7.4538
               15      Occ  Beta        2 (B2)     -7.4453
               39      Vir  Alpha      20 (A1)      0.0132
               41      Vir  Alpha      21 (A1)      0.0204
               52      Vir  Alpha      25 (A1)      0.0587
               54      Vir  Alpha      26 (A1)      0.0654
               72      Vir  Alpha      33 (A1)      0.1770
               63      Vir  Alpha      12 (B2)      0.0997
               39      Vir  Beta       20 (A1)      0.0132
               41      Vir  Beta       21 (A1)      0.0204
               52      Vir  Beta       25 (A1)      0.0587
               54      Vir  Beta       26 (A1)      0.0654
               72      Vir  Beta       33 (A1)      0.1770
               63      Vir  Beta       12 (B2)      0.0997


 EOMEE transition 4/A1
 Total energy = -2796.66479012 a.u.  Excitation energy = 190.5207 eV.
 R0^2 = 0.0000  R1^2 = 0.8918  R2_CCVV^2 = 0.0017  R2_COVV^2 = 0.0533  Res^2 = 1.21e-06
 Conv-d = yes

 Amplitude    Transitions between orbitals
 -0.4270       4 (B1) A                  ->    12 (B1) A                  
 -0.4270       4 (B1) B                  ->    12 (B1) B                  
  0.2871       4 (B1) A                  ->    17 (B1) A                  
  0.2871       4 (B1) B                  ->    17 (B1) B                  
  0.2726       4 (B1) A                  ->    13 (B1) A                  
  0.2726       4 (B1) B                  ->    13 (B1) B                  
 -0.1795       4 (B1) A                  ->    15 (B1) A                  
 -0.1795       4 (B1) B                  ->    15 (B1) B                  
 -0.1690       4 (B1) A                  ->    20 (B1) A                  
 -0.1690       4 (B1) B                  ->    20 (B1) B                  
  0.1052       4 (B1) A                  ->    19 (B1) A                  
  0.1052       4 (B1) B                  ->    19 (B1) B                  

              Summary of significant orbitals:

               Number  Type             Irrep      Energy
               14      Occ  Alpha       4 (B1)     -7.4454
               14      Occ  Beta        4 (B1)     -7.4454
               40      Vir  Alpha      12 (B1)      0.0201
               43      Vir  Alpha      13 (B1)      0.0291
               53      Vir  Alpha      15 (B1)      0.0630
               59      Vir  Alpha      17 (B1)      0.0763
               66      Vir  Alpha      19 (B1)      0.1191
               70      Vir  Alpha      20 (B1)      0.1649
               40      Vir  Beta       12 (B1)      0.0201
               43      Vir  Beta       13 (B1)      0.0291
               53      Vir  Beta       15 (B1)      0.0630
               59      Vir  Beta       17 (B1)      0.0763
               66      Vir  Beta       19 (B1)      0.1191
               70      Vir  Beta       20 (B1)      0.1649


 EOMEE transition 5/A1
 Total energy = -2796.65957009 a.u.  Excitation energy = 190.6628 eV.
 R0^2 = 0.0000  R1^2 = 0.8910  R2_CCVV^2 = 0.0017  R2_COVV^2 = 0.0537  Res^2 = 6.33e-06
 Conv-d = yes

 Amplitude    Transitions between orbitals
  0.4924       2 (B2) A                  ->    7 (B2) A                   
  0.4924       2 (B2) B                  ->    7 (B2) B                   
  0.2380       2 (B2) A                  ->    13 (B2) A                  
  0.2380       2 (B2) B                  ->    13 (B2) B                  
 -0.2361       2 (B2) A                  ->    10 (B2) A                  
 -0.2361       2 (B2) B                  ->    10 (B2) B                  
  0.1593       2 (B2) A                  ->    12 (B2) A                  
  0.1593       2 (B2) B                  ->    12 (B2) B                  
  0.1371       2 (B2) A                  ->    8 (B2) A                   
  0.1371       2 (B2) B                  ->    8 (B2) B                   
 -0.1288       2 (B2) A                  ->    11 (B2) A                  
 -0.1288       2 (B2) B                  ->    11 (B2) B                  

              Summary of significant orbitals:

               Number  Type             Irrep      Energy
               15      Occ  Alpha       2 (B2)     -7.4453
               15      Occ  Beta        2 (B2)     -7.4453
               42      Vir  Alpha       7 (B2)      0.0260
               46      Vir  Alpha       8 (B2)      0.0396
               56      Vir  Alpha      10 (B2)      0.0668
               58      Vir  Alpha      11 (B2)      0.0694
               63      Vir  Alpha      12 (B2)      0.0997
               69      Vir  Alpha      13 (B2)      0.1565
               42      Vir  Beta        7 (B2)      0.0260
               46      Vir  Beta        8 (B2)      0.0396
               56      Vir  Beta       10 (B2)      0.0668
               58      Vir  Beta       11 (B2)      0.0694
               63      Vir  Beta       12 (B2)      0.0997
               69      Vir  Beta       13 (B2)      0.1565


 EOMEE transition 6/A1
 Total energy = -2796.64551559 a.u.  Excitation energy = 191.0452 eV.
 R0^2 = 0.0000  R1^2 = 0.8872  R2_CCVV^2 = 0.0017  R2_COVV^2 = 0.0556  Res^2 = 9.11e-06
 Conv-d = yes

 Amplitude    Transitions between orbitals
 -0.3426       9 (A1) A                  ->    22 (A1) A                  
 -0.3426       9 (A1) B                  ->    22 (A1) B                  
  0.3144       9 (A1) A                  ->    21 (A1) A                  
  0.3144       9 (A1) B                  ->    21 (A1) B                  
 -0.2908       9 (A1) A                  ->    20 (A1) A                  
 -0.2908       9 (A1) B                  ->    20 (A1) B                  
  0.2420       9 (A1) A                  ->    28 (A1) A                  
  0.2420       9 (A1) B                  ->    28 (A1) B                  
 -0.1311       9 (A1) A                  ->    34 (A1) A                  
 -0.1311       9 (A1) B                  ->    34 (A1) B                  
 -0.1140       9 (A1) A                  ->    23 (A1) A                  
 -0.1140       9 (A1) B                  ->    23 (A1) B                  

              Summary of significant orbitals:

               Number  Type             Irrep      Energy
               13      Occ  Alpha       9 (A1)     -7.4538
               13      Occ  Beta        9 (A1)     -7.4538
               39      Vir  Alpha      20 (A1)      0.0132
               41      Vir  Alpha      21 (A1)      0.0204
               44      Vir  Alpha      22 (A1)      0.0297
               45      Vir  Alpha      23 (A1)      0.0365
               60      Vir  Alpha      28 (A1)      0.0817
               74      Vir  Alpha      34 (A1)      0.1956
               39      Vir  Beta       20 (A1)      0.0132
               41      Vir  Beta       21 (A1)      0.0204
               44      Vir  Beta       22 (A1)      0.0297
               45      Vir  Beta       23 (A1)      0.0365
               60      Vir  Beta       28 (A1)      0.0817
               74      Vir  Beta       34 (A1)      0.1956


      CVS-EOM-CCSD/MP2 left amplitudes will be solved using Davidson.
        Amplitudes will be solved using MOM  algorithm.
     Hard-coded thresholds: 
     LinDepThresh=1.00e-15  NormThresh=1.00e-06  ReorthogonThresh=1.00e-02

      Roots     MaxVec    MaxIter   Precond   Conv      Shift    
      6         120       60        1         1.00e-05  0.00e+00  
 ------------------------------------------------------------------------------
      Iter ConvRoots NVecs ResNorm Current eigenvalues (eV)
 ------------------------------------------------------------------------------
      0    0      6     3.88e-02   187.8984   189.8021   189.8840   190.5207   190.6628   191.0452   
      1    0      12    2.76e-01   187.8984   189.8021   189.8840   190.5208   190.6627   191.0452   
      2    0      18    4.81e-03   187.8983   189.8021   189.8840   190.5207   190.6627   191.0452   
      3    0      24    1.48e-04   187.8983   189.8021   189.8840   190.5207   190.6627   191.0452   
      4    0      30    3.26e-05   187.8983   189.8021   189.8840   190.5207   190.6627   191.0452   
      5    5      36    5.24e-06   187.8983*  189.8021   189.8840*  190.5207*  190.6627*  191.0452*  
      6    5      37    6.02e-06   187.8983*  189.8021   189.8840*  190.5207*  190.6627*  191.0452*  
      7    4      38    2.90e-05   187.8983*  189.8021   189.8840*  190.5207*  190.6626   191.0452*  
      8    5      40    5.16e-06   187.8983*  189.8021   189.8840*  190.5207*  190.6627*  191.0452*  
      9    6      41    3.44e-06   187.8983*  189.8021*  189.8840*  190.5207*  190.6627*  191.0452*  

     Davidson procedure converged

        Solving for CVS-EOMEE-CCSD B1 singlet states.

        CVS-EOMEE-CCSD/MP2 right amplitudes will be solved using Davidson.
        Amplitudes will be solved using standard  algorithm.
     Hard-coded thresholds: 
     LinDepThresh=1.00e-15  NormThresh=1.00e-06  ReorthogonThresh=1.00e-02

      Roots     MaxVec    MaxIter   Precond   Conv      Shift    
      6         120       60        1         1.00e-05  0.00e+00  
 ------------------------------------------------------------------------------
      Iter ConvRoots NVecs ResNorm Current eigenvalues (eV)
 ------------------------------------------------------------------------------
      0    0      6     3.06e+00   200.8309   201.3133   201.4606   201.8177   201.9704   202.1146   
      1    0      12    1.02e+01   200.3167   200.7970   200.9488   201.3012   201.4535   201.6011   
      2    0      18    1.45e-01   190.9678   191.3142   191.5641   191.8244   191.9953   192.1441   
      3    0      24    8.61e-03   190.4973   190.9124   191.1978   191.4797   191.6015   191.7894   
      4    0      30    1.34e-02   190.3673   190.8038   191.1356   191.4356   191.5427   191.7438   
      5    0      36    8.88e-02   189.4410   190.0616   191.0065   191.3100   191.3885   191.6865   
      6    0      42    1.97e-02   188.4715   189.6744   190.8031   191.1089   191.1492   191.4517   
      7    0      48    1.34e-02   188.1151   189.6435   190.7715   191.0512   191.1160   191.3985   
      8    0      54    1.13e-02   187.7234   189.6204   190.7605   190.9171   191.1015   191.3483   
      9    0      60    1.61e-03   187.6151   189.6094   190.7580   190.8246   191.0953   191.3097   
      10   0      66    8.60e-04   187.6026   189.6064   190.7572   190.8047   191.0913   191.2883   
      11   0      72    2.52e-04   187.6012   189.6058   190.7560   190.7978   191.0896   191.2778   
      12   0      78    2.03e-04   187.6002   189.6056   190.7558   190.7953   191.0891   191.2728   
      13   2      84    7.61e-05   187.5997*  189.6056*  190.7557   190.7918   191.0891   191.2693   
      14   3      88    4.24e-05   187.5997*  189.6056*  190.7556*  190.7913   191.0888   191.2665   
      15   4      91    2.33e-05   187.5996*  189.6056*  190.7556*  190.7909   191.0888*  191.2663   
      16   5      93    1.90e-05   187.5996*  189.6056*  190.7556*  190.7907*  191.0888*  191.2651   
      17   5      94    8.41e-06   187.5996*  189.6056*  190.7556*  190.7907*  191.0888*  191.2647   
      18   6      95    5.10e-06   187.5996*  189.6056*  190.7556*  190.7907*  191.0887*  191.2645*  

     Davidson procedure converged

 EOMEE transition 1/B1
 Total energy = -2796.77213821 a.u.  Excitation energy = 187.5996 eV.
 R0^2 = 0.0000  R1^2 = 0.9091  R2_CCVV^2 = 0.0017  R2_COVV^2 = 0.0446  Res^2 = 1.99e-06
 Conv-d = yes

 Amplitude    Transitions between orbitals
  0.3341       4 (B1) A                  ->    32 (A1) A                  
  0.3341       4 (B1) B                  ->    32 (A1) B                  
  0.2765       4 (B1) A                  ->    31 (A1) A                  
  0.2765       4 (B1) B                  ->    31 (A1) B                  
 -0.2695       4 (B1) A                  ->    36 (A1) A                  
 -0.2695       4 (B1) B                  ->    36 (A1) B                  
 -0.2200       4 (B1) A                  ->    34 (A1) A                  
 -0.2200       4 (B1) B                  ->    34 (A1) B                  
 -0.1883       4 (B1) A                  ->    28 (A1) A                  
 -0.1883       4 (B1) B                  ->    28 (A1) B                  
  0.1293       4 (B1) A                  ->    39 (A1) A                  
  0.1293       4 (B1) B                  ->    39 (A1) B                  
 -0.1279       4 (B1) A                  ->    30 (A1) A                  
 -0.1279       4 (B1) B                  ->    30 (A1) B                  

              Summary of significant orbitals:

               Number  Type             Irrep      Energy
               14      Occ  Alpha       4 (B1)     -7.4454
               14      Occ  Beta        4 (B1)     -7.4454
               60      Vir  Alpha      28 (A1)      0.0817
               65      Vir  Alpha      30 (A1)      0.1014
               67      Vir  Alpha      31 (A1)      0.1233
               68      Vir  Alpha      32 (A1)      0.1397
               74      Vir  Alpha      34 (A1)      0.1956
               78      Vir  Alpha      36 (A1)      0.2140
               87      Vir  Alpha      39 (A1)      0.2523
               60      Vir  Beta       28 (A1)      0.0817
               65      Vir  Beta       30 (A1)      0.1014
               67      Vir  Beta       31 (A1)      0.1233
               68      Vir  Beta       32 (A1)      0.1397
               74      Vir  Beta       34 (A1)      0.1956
               78      Vir  Beta       36 (A1)      0.2140
               87      Vir  Beta       39 (A1)      0.2523


 EOMEE transition 2/B1
 Total energy = -2796.69842183 a.u.  Excitation energy = 189.6056 eV.
 R0^2 = 0.0000  R1^2 = 0.8969  R2_CCVV^2 = 0.0017  R2_COVV^2 = 0.0507  Res^2 = 1.42e-06
 Conv-d = yes

 Amplitude    Transitions between orbitals
  0.3483       4 (B1) A                  ->    26 (A1) A                  
  0.3483       4 (B1) B                  ->    26 (A1) B                  
  0.2837       4 (B1) A                  ->    21 (A1) A                  
  0.2837       4 (B1) B                  ->    21 (A1) B                  
  0.2821       4 (B1) A                  ->    20 (A1) A                  
  0.2821       4 (B1) B                  ->    20 (A1) B                  
 -0.2339       4 (B1) A                  ->    33 (A1) A                  
 -0.2339       4 (B1) B                  ->    33 (A1) B                  
  0.2160       4 (B1) A                  ->    25 (A1) A                  
  0.2160       4 (B1) B                  ->    25 (A1) B                  
  0.1017       4 (B1) A                  ->    29 (A1) A                  
  0.1017       4 (B1) B                  ->    29 (A1) B                  

              Summary of significant orbitals:

               Number  Type             Irrep      Energy
               14      Occ  Alpha       4 (B1)     -7.4454
               14      Occ  Beta        4 (B1)     -7.4454
               39      Vir  Alpha      20 (A1)      0.0132
               41      Vir  Alpha      21 (A1)      0.0204
               52      Vir  Alpha      25 (A1)      0.0587
               54      Vir  Alpha      26 (A1)      0.0654
               61      Vir  Alpha      29 (A1)      0.0865
               72      Vir  Alpha      33 (A1)      0.1770
               39      Vir  Beta       20 (A1)      0.0132
               41      Vir  Beta       21 (A1)      0.0204
               52      Vir  Beta       25 (A1)      0.0587
               54      Vir  Beta       26 (A1)      0.0654
               61      Vir  Beta       29 (A1)      0.0865
               72      Vir  Beta       33 (A1)      0.1770


 EOMEE transition 3/B1
 Total energy = -2796.65616046 a.u.  Excitation energy = 190.7555 eV.
 R0^2 = 0.0000  R1^2 = 0.8909  R2_CCVV^2 = 0.0017  R2_COVV^2 = 0.0537  Res^2 = 7.87e-06
 Conv-d = yes

 Amplitude    Transitions between orbitals
  0.4283       9 (A1) A                  ->    12 (B1) A                  
  0.4283       9 (A1) B                  ->    12 (B1) B                  
 -0.2891       9 (A1) A                  ->    17 (B1) A                  
 -0.2891       9 (A1) B                  ->    17 (B1) B                  
 -0.2725       9 (A1) A                  ->    13 (B1) A                  
 -0.2725       9 (A1) B                  ->    13 (B1) B                  
  0.1805       9 (A1) A                  ->    15 (B1) A                  
  0.1805       9 (A1) B                  ->    15 (B1) B                  
  0.1728       9 (A1) A                  ->    20 (B1) A                  
  0.1728       9 (A1) B                  ->    20 (B1) B                  
 -0.1056       9 (A1) A                  ->    19 (B1) A                  
 -0.1056       9 (A1) B                  ->    19 (B1) B                  

              Summary of significant orbitals:

               Number  Type             Irrep      Energy
               13      Occ  Alpha       9 (A1)     -7.4538
               13      Occ  Beta        9 (A1)     -7.4538
               40      Vir  Alpha      12 (B1)      0.0201
               43      Vir  Alpha      13 (B1)      0.0291
               53      Vir  Alpha      15 (B1)      0.0630
               59      Vir  Alpha      17 (B1)      0.0763
               66      Vir  Alpha      19 (B1)      0.1191
               70      Vir  Alpha      20 (B1)      0.1649
               40      Vir  Beta       12 (B1)      0.0201
               43      Vir  Beta       13 (B1)      0.0291
               53      Vir  Beta       15 (B1)      0.0630
               59      Vir  Beta       17 (B1)      0.0763
               66      Vir  Beta       19 (B1)      0.1191
               70      Vir  Beta       20 (B1)      0.1649


 EOMEE transition 4/B1
 Total energy = -2796.65486834 a.u.  Excitation energy = 190.7907 eV.
 R0^2 = 0.0000  R1^2 = 0.8887  R2_CCVV^2 = 0.0017  R2_COVV^2 = 0.0548  Res^2 = 7.31e-06
 Conv-d = yes

 Amplitude    Transitions between orbitals
 -0.3495       4 (B1) A                  ->    22 (A1) A                  
 -0.3495       4 (B1) B                  ->    22 (A1) B                  
  0.2987       4 (B1) A                  ->    21 (A1) A                  
  0.2987       4 (B1) B                  ->    21 (A1) B                  
 -0.2853       4 (B1) A                  ->    20 (A1) A                  
 -0.2853       4 (B1) B                  ->    20 (A1) B                  
  0.2542       4 (B1) A                  ->    28 (A1) A                  
  0.2542       4 (B1) B                  ->    28 (A1) B                  
 -0.1333       4 (B1) A                  ->    34 (A1) A                  
 -0.1333       4 (B1) B                  ->    34 (A1) B                  
 -0.1225       4 (B1) A                  ->    23 (A1) A                  
 -0.1225       4 (B1) B                  ->    23 (A1) B                  

              Summary of significant orbitals:

               Number  Type             Irrep      Energy
               14      Occ  Alpha       4 (B1)     -7.4454
               14      Occ  Beta        4 (B1)     -7.4454
               39      Vir  Alpha      20 (A1)      0.0132
               41      Vir  Alpha      21 (A1)      0.0204
               44      Vir  Alpha      22 (A1)      0.0297
               45      Vir  Alpha      23 (A1)      0.0365
               60      Vir  Alpha      28 (A1)      0.0817
               74      Vir  Alpha      34 (A1)      0.1956
               39      Vir  Beta       20 (A1)      0.0132
               41      Vir  Beta       21 (A1)      0.0204
               44      Vir  Beta       22 (A1)      0.0297
               45      Vir  Beta       23 (A1)      0.0365
               60      Vir  Beta       28 (A1)      0.0817
               74      Vir  Beta       34 (A1)      0.1956


 EOMEE transition 5/B1
 Total energy = -2796.64391566 a.u.  Excitation energy = 191.0887 eV.
 R0^2 = 0.0000  R1^2 = 0.8889  R2_CCVV^2 = 0.0017  R2_COVV^2 = 0.0547  Res^2 = 2.47e-06
 Conv-d = yes

 Amplitude    Transitions between orbitals
 -0.3938       4 (B1) A                  ->    20 (A1) A                  
 -0.3938       4 (B1) B                  ->    20 (A1) B                  
  0.3448       4 (B1) A                  ->    23 (A1) A                  
  0.3448       4 (B1) B                  ->    23 (A1) B                  
  0.1806       4 (B1) A                  ->    30 (A1) A                  
  0.1806       4 (B1) B                  ->    30 (A1) B                  
 -0.1537       4 (B1) A                  ->    28 (A1) A                  
 -0.1537       4 (B1) B                  ->    28 (A1) B                  
  0.1496       4 (B1) A                  ->    32 (A1) A                  
  0.1496       4 (B1) B                  ->    32 (A1) B                  
  0.1407       4 (B1) A                  ->    29 (A1) A                  
  0.1407       4 (B1) B                  ->    29 (A1) B                  
  0.1315       4 (B1) A                  ->    26 (A1) A                  
  0.1315       4 (B1) B                  ->    26 (A1) B                  
  0.1231       4 (B1) A                  ->    24 (A1) A                  
  0.1231       4 (B1) B                  ->    24 (A1) B                  
  0.1033       4 (B1) A                  ->    34 (A1) A                  
  0.1033       4 (B1) B                  ->    34 (A1) B                  

              Summary of significant orbitals:

               Number  Type             Irrep      Energy
               14      Occ  Alpha       4 (B1)     -7.4454
               14      Occ  Beta        4 (B1)     -7.4454
               39      Vir  Alpha      20 (A1)      0.0132
               45      Vir  Alpha      23 (A1)      0.0365
               49      Vir  Alpha      24 (A1)      0.0478
               54      Vir  Alpha      26 (A1)      0.0654
               60      Vir  Alpha      28 (A1)      0.0817
               61      Vir  Alpha      29 (A1)      0.0865
               65      Vir  Alpha      30 (A1)      0.1014
               68      Vir  Alpha      32 (A1)      0.1397
               74      Vir  Alpha      34 (A1)      0.1956
               39      Vir  Beta       20 (A1)      0.0132
               45      Vir  Beta       23 (A1)      0.0365
               49      Vir  Beta       24 (A1)      0.0478
               54      Vir  Beta       26 (A1)      0.0654
               60      Vir  Beta       28 (A1)      0.0817
               61      Vir  Beta       29 (A1)      0.0865
               65      Vir  Beta       30 (A1)      0.1014
               68      Vir  Beta       32 (A1)      0.1397
               74      Vir  Beta       34 (A1)      0.1956


 EOMEE transition 6/B1
 Total energy = -2796.63745848 a.u.  Excitation energy = 191.2645 eV.
 R0^2 = 0.0000  R1^2 = 0.8882  R2_CCVV^2 = 0.0017  R2_COVV^2 = 0.0551  Res^2 = 9.56e-06
 Conv-d = yes

 Amplitude    Transitions between orbitals
  0.3580       4 (B1) A                  ->    22 (A1) A                  
  0.3580       4 (B1) B                  ->    22 (A1) B                  
 -0.3277       4 (B1) A                  ->    24 (A1) A                  
 -0.3277       4 (B1) B                  ->    24 (A1) B                  
 -0.2330       4 (B1) A                  ->    20 (A1) A                  
 -0.2330       4 (B1) B                  ->    20 (A1) B                  
 -0.2260       4 (B1) A                  ->    23 (A1) A                  
 -0.2260       4 (B1) B                  ->    23 (A1) B                  
 -0.1403       4 (B1) A                  ->    25 (A1) A                  
 -0.1403       4 (B1) B                  ->    25 (A1) B                  
 -0.1233       4 (B1) A                  ->    30 (A1) A                  
 -0.1233       4 (B1) B                  ->    30 (A1) B                  
  0.1099       4 (B1) A                  ->    31 (A1) A                  
  0.1099       4 (B1) B                  ->    31 (A1) B                  

              Summary of significant orbitals:

               Number  Type             Irrep      Energy
               14      Occ  Alpha       4 (B1)     -7.4454
               14      Occ  Beta        4 (B1)     -7.4454
               39      Vir  Alpha      20 (A1)      0.0132
               44      Vir  Alpha      22 (A1)      0.0297
               45      Vir  Alpha      23 (A1)      0.0365
               49      Vir  Alpha      24 (A1)      0.0478
               52      Vir  Alpha      25 (A1)      0.0587
               65      Vir  Alpha      30 (A1)      0.1014
               67      Vir  Alpha      31 (A1)      0.1233
               39      Vir  Beta       20 (A1)      0.0132
               44      Vir  Beta       22 (A1)      0.0297
               45      Vir  Beta       23 (A1)      0.0365
               49      Vir  Beta       24 (A1)      0.0478
               52      Vir  Beta       25 (A1)      0.0587
               65      Vir  Beta       30 (A1)      0.1014
               67      Vir  Beta       31 (A1)      0.1233


      CVS-EOM-CCSD/MP2 left amplitudes will be solved using Davidson.
        Amplitudes will be solved using MOM  algorithm.
     Hard-coded thresholds: 
     LinDepThresh=1.00e-15  NormThresh=1.00e-06  ReorthogonThresh=1.00e-02

      Roots     MaxVec    MaxIter   Precond   Conv      Shift    
      6         120       60        1         1.00e-05  0.00e+00  
 ------------------------------------------------------------------------------
      Iter ConvRoots NVecs ResNorm Current eigenvalues (eV)
 ------------------------------------------------------------------------------
      0    0      6     3.81e-02   187.5996   189.6056   190.7556   190.7907   191.0887   191.2645   
      1    0      12    1.97e-01   187.5997   189.6056   190.7556   190.7907   191.0888   191.2645   
      2    0      18    4.12e-03   187.5996   189.6056   190.7555   190.7907   191.0887   191.2644   
      3    0      24    1.27e-04   187.5996   189.6056   190.7555   190.7907   191.0887   191.2644   
      4    0      30    2.12e-05   187.5996   189.6056   190.7555   190.7907   191.0887   191.2644   
Found complex roots...
      5    6      36    2.67e-06   187.5996*  189.6056*  190.7555*  190.7907*  191.0887*  191.2644*  

     Davidson procedure converged

        Solving for CVS-EOMEE-CCSD B2 singlet states.

        CVS-EOMEE-CCSD/MP2 right amplitudes will be solved using Davidson.
        Amplitudes will be solved using standard  algorithm.
     Hard-coded thresholds: 
     LinDepThresh=1.00e-15  NormThresh=1.00e-06  ReorthogonThresh=1.00e-02

      Roots     MaxVec    MaxIter   Precond   Conv      Shift    
      6         120       60        1         1.00e-05  0.00e+00  
 ------------------------------------------------------------------------------
      Iter ConvRoots NVecs ResNorm Current eigenvalues (eV)
 ------------------------------------------------------------------------------
      0    0      6     3.06e+00   200.8296   201.3117   201.5316   201.8156   201.9481   201.9693   
      1    0      12    1.02e+01   200.3155   200.7955   201.0192   201.2992   201.4316   201.4525   
      2    0      18    1.47e-01   190.9646   191.3115   191.6329   191.8209   191.9759   191.9926   
      3    0      24    8.96e-03   190.4917   190.9068   191.2390   191.4727   191.5955   191.6242   
      4    0      30    1.33e-02   190.3614   190.7981   191.1681   191.4282   191.5364   191.5786   
      5    0      36    7.28e-02   189.4455   190.0607   191.0400   191.3061   191.3813   191.5420   
      6    0      42    2.19e-02   188.4628   189.6674   190.7743   191.1076   191.1364   191.4628   
      7    0      48    1.39e-02   188.1530   189.6376   190.7144   191.0510   191.1029   191.4039   
      8    0      54    1.25e-02   187.7241   189.6132   190.6613   190.9149   191.0874   191.3427   
      9    0      60    4.39e-03   187.6129   189.6025   190.5644   190.8192   191.0815   191.3077   
      10   0      66    1.43e-02   187.6007   189.5995   190.3596   190.7982   191.0769   191.1848   
      11   0      72    2.22e-03   187.5992   189.5983   190.2146   190.7914   191.0441   191.0752   
      12   0      78    4.85e-03   187.5982   189.5981   190.1018   190.7882   190.9626   191.0745   
      13   2      84    9.18e-04   187.5977*  189.5982*  190.0223   190.7841   190.9109   191.0746   
      14   2      88    3.93e-04   187.5977*  189.5981*  190.0082   190.7836   190.9000   191.0742   
      15   3      92    9.93e-05   187.5977*  189.5981*  190.0031   190.7832   190.8965   191.0743*  
      16   3      95    1.22e-04   187.5977*  189.5981*  189.9995   190.7832   190.8926   191.0742*  
      17   4      98    6.87e-05   187.5977*  189.5981*  189.9977   190.7831*  190.8909   191.0742*  
      18   4      100   3.87e-05   187.5977*  189.5981*  189.9973   190.7831*  190.8899   191.0742*  
      19   4      102   3.02e-05   187.5977*  189.5981*  189.9962   190.7831*  190.8880   191.0742*  
      20   4      104   1.51e-05   187.5977*  189.5981*  189.9957   190.7831*  190.8869   191.0742*  
      21   5      106   9.34e-06   187.5977*  189.5981*  189.9958*  190.7831*  190.8866   191.0742*  
      22   6      107   3.80e-06   187.5977*  189.5981*  189.9958*  190.7831*  190.8866*  191.0742*  

     Davidson procedure converged

 EOMEE transition 1/B2
 Total energy = -2796.77220960 a.u.  Excitation energy = 187.5977 eV.
 R0^2 = 0.0000  R1^2 = 0.9090  R2_CCVV^2 = 0.0017  R2_COVV^2 = 0.0447  Res^2 = 3.03e-06
 Conv-d = yes

 Amplitude    Transitions between orbitals
 -0.3344       2 (B2) A                  ->    32 (A1) A                  
 -0.3344       2 (B2) B                  ->    32 (A1) B                  
 -0.2761       2 (B2) A                  ->    31 (A1) A                  
 -0.2761       2 (B2) B                  ->    31 (A1) B                  
  0.2693       2 (B2) A                  ->    36 (A1) A                  
  0.2693       2 (B2) B                  ->    36 (A1) B                  
  0.2199       2 (B2) A                  ->    34 (A1) A                  
  0.2199       2 (B2) B                  ->    34 (A1) B                  
  0.1882       2 (B2) A                  ->    28 (A1) A                  
  0.1882       2 (B2) B                  ->    28 (A1) B                  
 -0.1291       2 (B2) A                  ->    39 (A1) A                  
 -0.1291       2 (B2) B                  ->    39 (A1) B                  
  0.1279       2 (B2) A                  ->    30 (A1) A                  
  0.1279       2 (B2) B                  ->    30 (A1) B                  

              Summary of significant orbitals:

               Number  Type             Irrep      Energy
               15      Occ  Alpha       2 (B2)     -7.4453
               15      Occ  Beta        2 (B2)     -7.4453
               60      Vir  Alpha      28 (A1)      0.0817
               65      Vir  Alpha      30 (A1)      0.1014
               67      Vir  Alpha      31 (A1)      0.1233
               68      Vir  Alpha      32 (A1)      0.1397
               74      Vir  Alpha      34 (A1)      0.1956
               78      Vir  Alpha      36 (A1)      0.2140
               87      Vir  Alpha      39 (A1)      0.2523
               60      Vir  Beta       28 (A1)      0.0817
               65      Vir  Beta       30 (A1)      0.1014
               67      Vir  Beta       31 (A1)      0.1233
               68      Vir  Beta       32 (A1)      0.1397
               74      Vir  Beta       34 (A1)      0.1956
               78      Vir  Beta       36 (A1)      0.2140
               87      Vir  Beta       39 (A1)      0.2523


 EOMEE transition 2/B2
 Total energy = -2796.69869536 a.u.  Excitation energy = 189.5981 eV.
 R0^2 = 0.0000  R1^2 = 0.8966  R2_CCVV^2 = 0.0017  R2_COVV^2 = 0.0508  Res^2 = 2.67e-06
 Conv-d = yes

 Amplitude    Transitions between orbitals
 -0.3493       2 (B2) A                  ->    26 (A1) A                  
 -0.3493       2 (B2) B                  ->    26 (A1) B                  
 -0.2824       2 (B2) A                  ->    21 (A1) A                  
 -0.2824       2 (B2) B                  ->    21 (A1) B                  
 -0.2817       2 (B2) A                  ->    20 (A1) A                  
 -0.2817       2 (B2) B                  ->    20 (A1) B                  
  0.2317       2 (B2) A                  ->    33 (A1) A                  
  0.2317       2 (B2) B                  ->    33 (A1) B                  
 -0.2163       2 (B2) A                  ->    25 (A1) A                  
 -0.2163       2 (B2) B                  ->    25 (A1) B                  
 -0.1017       2 (B2) A                  ->    29 (A1) A                  
 -0.1017       2 (B2) B                  ->    29 (A1) B                  

              Summary of significant orbitals:

               Number  Type             Irrep      Energy
               15      Occ  Alpha       2 (B2)     -7.4453
               15      Occ  Beta        2 (B2)     -7.4453
               39      Vir  Alpha      20 (A1)      0.0132
               41      Vir  Alpha      21 (A1)      0.0204
               52      Vir  Alpha      25 (A1)      0.0587
               54      Vir  Alpha      26 (A1)      0.0654
               61      Vir  Alpha      29 (A1)      0.0865
               72      Vir  Alpha      33 (A1)      0.1770
               39      Vir  Beta       20 (A1)      0.0132
               41      Vir  Beta       21 (A1)      0.0204
               52      Vir  Beta       25 (A1)      0.0587
               54      Vir  Beta       26 (A1)      0.0654
               61      Vir  Beta       29 (A1)      0.0865
               72      Vir  Beta       33 (A1)      0.1770


 EOMEE transition 3/B2
 Total energy = -2796.68408105 a.u.  Excitation energy = 189.9958 eV.
 R0^2 = 0.0000  R1^2 = 0.8728  R2_CCVV^2 = 0.0017  R2_COVV^2 = 0.0628  Res^2 = 1.28e-06
 Conv-d = yes

 Amplitude    Transitions between orbitals
 -0.5889       9 (A1) A                  ->    12 (B2) A                  
 -0.5889       9 (A1) B                  ->    12 (B2) B                  
  0.1363       9 (A1) A                  ->    16 (B2) A                  
  0.1363       9 (A1) B                  ->    16 (B2) B                  
  0.1296       9 (A1) A                  ->    7 (B2) A                   
  0.1296       9 (A1) B                  ->    7 (B2) B                   
 -0.1071       9 (A1) A                  ->    10 (B2) A                  
 -0.1071       9 (A1) B                  ->    10 (B2) B                  
 -0.1031       9 (A1) A                  ->    18 (B2) A                  
 -0.1031       9 (A1) B                  ->    18 (B2) B                  

              Summary of significant orbitals:

               Number  Type             Irrep      Energy
               13      Occ  Alpha       9 (A1)     -7.4538
               13      Occ  Beta        9 (A1)     -7.4538
               42      Vir  Alpha       7 (B2)      0.0260
               56      Vir  Alpha      10 (B2)      0.0668
               63      Vir  Alpha      12 (B2)      0.0997
               80      Vir  Alpha      16 (B2)      0.2251
               96      Vir  Alpha      18 (B2)      0.3529
               42      Vir  Beta        7 (B2)      0.0260
               56      Vir  Beta       10 (B2)      0.0668
               63      Vir  Beta       12 (B2)      0.0997
               80      Vir  Beta       16 (B2)      0.2251
               96      Vir  Beta       18 (B2)      0.3529


 EOMEE transition 4/B2
 Total energy = -2796.65514933 a.u.  Excitation energy = 190.7831 eV.
[...]
   A->B: 0.018971 (X 0.000000, Y 0.000000, Z -0.018971)
   B->A: 0.019399 (X 0.000000, Y 0.000000, Z -0.019399)
 Oscillator strength (a.u.): 0.001694
 Norm of one-particle transition density matrix:
   A->B: 0.933101;   B->A: 0.936950
   ||gamma^AB||*||gamma^BA||: 0.874270

 ------------------------------------------------------------------------------
 State A: ccsd: 0/A1
 State B: cvs_eomee_ccsd/rhfref/singlets: 2/A1
 Transition dipole moment (a.u.):
   A->B: 0.000632 (X 0.000000, Y 0.000000, Z 0.000632)
   B->A: 0.001420 (X 0.000000, Y 0.000000, Z 0.001420)
 Oscillator strength (a.u.): 0.000004
 Norm of one-particle transition density matrix:
   A->B: 0.910717;   B->A: 0.914187
   ||gamma^AB||*||gamma^BA||: 0.832566

 ------------------------------------------------------------------------------
 State A: ccsd: 0/A1
 State B: cvs_eomee_ccsd/rhfref/singlets: 3/A1
 Transition dipole moment (a.u.):
   A->B: 0.027563 (X 0.000000, Y 0.000000, Z -0.027563)
   B->A: 0.027238 (X 0.000000, Y 0.000000, Z -0.027238)
 Oscillator strength (a.u.): 0.003493  
 Norm of one-particle transition density matrix:
   A->B: 0.943792;   B->A: 0.926986
   ||gamma^AB||*||gamma^BA||: 0.874881

 ------------------------------------------------------------------------------
 State A: ccsd: 0/A1
 State B: cvs_eomee_ccsd/rhfref/singlets: 4/A1
 Transition dipole moment (a.u.):
   A->B: 0.001153 (X 0.000000, Y 0.000000, Z 0.001153)
   B->A: 0.001250 (X 0.000000, Y 0.000000, Z 0.001250)
 Oscillator strength (a.u.): 0.000007
 Norm of one-particle transition density matrix:
   A->B: 0.943861;   B->A: 0.924304
   ||gamma^AB||*||gamma^BA||: 0.872415

 ------------------------------------------------------------------------------
 State A: ccsd: 0/A1
 State B: cvs_eomee_ccsd/rhfref/singlets: 5/A1
 Transition dipole moment (a.u.):
   A->B: 0.000729 (X 0.000000, Y 0.000000, Z 0.000729)
   B->A: 0.000599 (X 0.000000, Y 0.000000, Z 0.000599)
 Oscillator strength (a.u.): 0.000002
 Norm of one-particle transition density matrix:
   A->B: 0.942045;   B->A: 0.923919
   ||gamma^AB||*||gamma^BA||: 0.870373

 ------------------------------------------------------------------------------
 State A: ccsd: 0/A1
 State B: cvs_eomee_ccsd/rhfref/singlets: 6/A1
 Transition dipole moment (a.u.):
   A->B: 0.001246 (X 0.000000, Y 0.000000, Z 0.001246)
   B->A: 0.001084 (X 0.000000, Y 0.000000, Z 0.001084)
 Oscillator strength (a.u.): 0.000006
 Norm of one-particle transition density matrix:
   A->B: 0.941622;   B->A: 0.920832
   ||gamma^AB||*||gamma^BA||: 0.867076

 ------------------------------------------------------------------------------
 State A: ccsd: 0/A1
 State B: cvs_eomee_ccsd/rhfref/singlets: 1/B1
 Transition dipole moment (a.u.):
   A->B: 0.035891 (X 0.035891, Y 0.000000, Z 0.000000)
   B->A: 0.035876 (X 0.035876, Y 0.000000, Z 0.000000)
 Oscillator strength (a.u.): 0.005918
 Norm of one-particle transition density matrix:
   A->B: 0.934421;   B->A: 0.939193
   ||gamma^AB||*||gamma^BA||: 0.877601

 ------------------------------------------------------------------------------
 State A: ccsd: 0/A1
 State B: cvs_eomee_ccsd/rhfref/singlets: 2/B1
 Transition dipole moment (a.u.):
   A->B: 0.023970 (X -0.023970, Y 0.000000, Z 0.000000)
   B->A: 0.023807 (X -0.023807, Y 0.000000, Z 0.000000)
 Oscillator strength (a.u.): 0.002651
 Norm of one-particle transition density matrix:
   A->B: 0.946169;   B->A: 0.928088
   ||gamma^AB||*||gamma^BA||: 0.878128

 ------------------------------------------------------------------------------
 State A: ccsd: 0/A1
 State B: cvs_eomee_ccsd/rhfref/singlets: 3/B1
 Transition dipole moment (a.u.):
   A->B: 0.001714 (X 0.001714, Y 0.000000, Z 0.000000)
   B->A: 0.001670 (X 0.001670, Y 0.000000, Z 0.000000)
 Oscillator strength (a.u.): 0.000013
 Norm of one-particle transition density matrix:
   A->B: 0.943489;   B->A: 0.923681
   ||gamma^AB||*||gamma^BA||: 0.871483

 ------------------------------------------------------------------------------
 State A: ccsd: 0/A1
 State B: cvs_eomee_ccsd/rhfref/singlets: 4/B1
 Transition dipole moment (a.u.):
   A->B: 0.002078 (X 0.002078, Y 0.000000, Z 0.000000)
   B->A: 0.001964 (X 0.001964, Y 0.000000, Z 0.000000)
 Oscillator strength (a.u.): 0.000019
 Norm of one-particle transition density matrix:
   A->B: 0.942410;   B->A: 0.921805
   ||gamma^AB||*||gamma^BA||: 0.868718

 ------------------------------------------------------------------------------
 State A: ccsd: 0/A1
 State B: cvs_eomee_ccsd/rhfref/singlets: 5/B1
 Transition dipole moment (a.u.):
   A->B: 0.009899 (X -0.009899, Y 0.000000, Z 0.000000)
   B->A: 0.009776 (X -0.009776, Y 0.000000, Z 0.000000)
 Oscillator strength (a.u.): 0.000453
 Norm of one-particle transition density matrix:
   A->B: 0.942630;   B->A: 0.921974
   ||gamma^AB||*||gamma^BA||: 0.869080

 ------------------------------------------------------------------------------
 State A: ccsd: 0/A1
 State B: cvs_eomee_ccsd/rhfref/singlets: 6/B1
 Transition dipole moment (a.u.):
   A->B: 0.005096 (X -0.005096, Y 0.000000, Z 0.000000)
   B->A: 0.005068 (X -0.005068, Y 0.000000, Z 0.000000)
 Oscillator strength (a.u.): 0.000121
 Norm of one-particle transition density matrix:
   A->B: 0.942326;   B->A: 0.921434
   ||gamma^AB||*||gamma^BA||: 0.868292

 ------------------------------------------------------------------------------
 State A: ccsd: 0/A1
 State B: cvs_eomee_ccsd/rhfref/singlets: 1/B2
 Transition dipole moment (a.u.):
   A->B: 0.035192 (X 0.000000, Y 0.035192, Z 0.000000)
   B->A: 0.035201 (X 0.000000, Y 0.035201, Z 0.000000)
 Oscillator strength (a.u.): 0.005694
 Norm of one-particle transition density matrix:
   A->B: 0.934307;   B->A: 0.939117
   ||gamma^AB||*||gamma^BA||: 0.877424

 ------------------------------------------------------------------------------
 State A: ccsd: 0/A1
 State B: cvs_eomee_ccsd/rhfref/singlets: 2/B2
 Transition dipole moment (a.u.):
   A->B: 0.023370 (X 0.000000, Y -0.023370, Z 0.000000)
   B->A: 0.023235 (X 0.000000, Y -0.023235, Z 0.000000)
 Oscillator strength (a.u.): 0.002522
 Norm of one-particle transition density matrix:
   A->B: 0.946019;   B->A: 0.927949
   ||gamma^AB||*||gamma^BA||: 0.877857

 ------------------------------------------------------------------------------
 State A: ccsd: 0/A1
 State B: cvs_eomee_ccsd/rhfref/singlets: 3/B2
 Transition dipole moment (a.u.):
   A->B: 0.006194 (X 0.000000, Y -0.006194, Z 0.000000)
   B->A: 0.006096 (X 0.000000, Y -0.006096, Z 0.000000)
 Oscillator strength (a.u.): 0.000176
 Norm of one-particle transition density matrix:
   A->B: 0.907870;   B->A: 0.912090
   ||gamma^AB||*||gamma^BA||: 0.828059

 ------------------------------------------------------------------------------
 State A: ccsd: 0/A1
 State B: cvs_eomee_ccsd/rhfref/singlets: 4/B2
 Transition dipole moment (a.u.):
   A->B: 0.000777 (X 0.000000, Y 0.000777, Z 0.000000)
   B->A: 0.000724 (X 0.000000, Y 0.000724, Z 0.000000)
 Oscillator strength (a.u.): 0.000003
 Norm of one-particle transition density matrix:
   A->B: 0.942291;   B->A: 0.921719
   ||gamma^AB||*||gamma^BA||: 0.868528

 ------------------------------------------------------------------------------
 State A: ccsd: 0/A1
 State B: cvs_eomee_ccsd/rhfref/singlets: 5/B2
 Transition dipole moment (a.u.):
   A->B: 0.000686 (X 0.000000, Y 0.000686, Z 0.000000)
   B->A: 0.000710 (X 0.000000, Y 0.000710, Z 0.000000)
 Oscillator strength (a.u.): 0.000002
 Norm of one-particle transition density matrix:
   A->B: 0.942567;   B->A: 0.923984
   ||gamma^AB||*||gamma^BA||: 0.870917

 ------------------------------------------------------------------------------
 State A: ccsd: 0/A1
 State B: cvs_eomee_ccsd/rhfref/singlets: 6/B2
 Transition dipole moment (a.u.):
   A->B: 0.006858 (X 0.000000, Y 0.006858, Z 0.000000)
   B->A: 0.006818 (X 0.000000, Y 0.006818, Z 0.000000)
 Oscillator strength (a.u.): 0.000219
 Norm of one-particle transition density matrix:
   A->B: 0.942445;   B->A: 0.921821
   ||gamma^AB||*||gamma^BA||: 0.868765


 All requested transition properties have been computed

 Transition Properties:   CPU 131.51 s  wall 26.80 s

 Total ccman2 time:   CPU 48719.34 s  wall 7170.89 s


 --------------------------------------------------------------
             Orbital Energies (a.u.) and Symmetries
 --------------------------------------------------------------

 Alpha MOs, Restricted
 -- Occupied --                  
-490.03  -65.16  -58.52  -58.52  -58.52  -11.30  -11.26  -11.26
  1 A1    2 A1    3 A1    1 B2    1 B1    4 A1    2 B1    5 A1                 
-11.253 -11.253 -11.250  -9.840  -7.454  -7.445  -7.445  -3.193
  6 A1    3 B1    7 A1    8 A1    9 A1    4 B1    2 B2   10 A1                 
 -3.189  -3.189  -3.179  -3.179  -1.180  -1.077  -1.036  -0.977
  3 B2    5 B1   11 A1    1 A2   12 A1   13 A1    6 B1   14 A1                 
 -0.849  -0.820  -0.714  -0.648  -0.647  -0.608  -0.578  -0.535
  7 B1   15 A1   16 A1    8 B1   17 A1    9 B1   18 A1    4 B2                 
 -0.518  -0.496  -0.440  -0.417  -0.354  -0.335
 10 B1   19 A1    5 B2   11 B1    2 A2    6 B2                                 
 -- Virtual --                   
  0.013   0.020   0.020   0.026   0.029   0.030   0.037   0.040
 20 A1   12 B1   21 A1    7 B2   13 B1   22 A1   23 A1    8 B2                 
  0.043   0.047   0.048   0.054   0.055   0.059   0.063   0.065
  3 A2   14 B1   24 A1    9 B2    4 A2   25 A1   15 B1   26 A1                 
  0.067   0.067   0.069   0.069   0.076   0.082   0.087   0.091
 16 B1   10 B2   27 A1   11 B2   17 B1   28 A1   29 A1   18 B1                 
  0.100   0.101   0.101   0.119   0.123   0.140   0.156   0.165
 12 B2    5 A2   30 A1   19 B1   31 A1   32 A1   13 B2   20 B1                 
  0.174   0.177   0.179   0.196   0.198   0.203   0.207   0.214
 14 B2   33 A1    6 A2   34 A1   21 B1   35 A1   15 B2   36 A1                 
  0.223   0.225   0.229   0.229   0.231   0.242   0.245   0.248
 22 B1   16 B2   37 A1   23 B1    7 A2   38 A1   17 B2   24 B1                 
  0.252   0.254   0.264   0.278   0.289   0.294   0.314   0.337
 39 A1   25 B1   40 A1   41 A1   26 B1   27 B1   42 A1   28 B1                 
  0.342   0.353   0.378   0.413   0.416   0.433   0.442   0.487
 43 A1   18 B2   44 A1   45 A1   29 B1   30 B1   46 A1   47 A1                 
  0.494   0.512   0.513   0.607   0.615   0.619   0.645   0.647
 31 B1   32 B1   48 A1   49 A1   33 B1   19 B2   34 B1   50 A1                 
  0.717   0.734   0.736   0.738   0.743   0.748   0.766   0.775
 51 A1   35 B1   20 B2   36 B1   52 A1   21 B2    8 A2   53 A1                 
  0.787   0.788   0.805   0.829   0.835   0.866   0.892   0.898
  9 A2   37 B1   22 B2   10 A2   54 A1   23 B2   55 A1   56 A1                 
  0.925   0.926   0.939   0.940   0.967   0.999   1.012   1.035
 24 B2   38 B1   57 A1   39 B1   58 A1   59 A1   40 B1   60 A1                 
  1.064   1.078   1.119   1.125   1.125   1.126   1.189   1.202
 41 B1   61 A1   62 A1   42 B1   63 A1   43 B1   44 B1   25 B2                 
  1.212   1.230   1.289   1.301   1.308   1.345   1.374   1.499
 64 A1   11 A2   65 A1   45 B1   12 A2   26 B2   13 A2   66 A1                 
  1.525   1.615   1.725   1.785   1.787   1.818   1.823   1.831
 27 B2   67 A1   46 B1   47 B1   68 A1   69 A1   28 B2   14 A2                 
  1.881   1.907   1.909   1.949   1.995   2.006   2.042   2.104
 29 B2   70 A1   48 B1   71 A1   49 B1   30 B2   15 A2   50 B1                 
  2.151   2.217   2.218   2.219   2.235   2.248   2.272   2.322
 72 A1   51 B1   31 B2   16 A2   52 B1   73 A1   32 B2   74 A1                 
  2.346   2.354   2.366   2.375   2.443   2.594   2.616   2.645
 75 A1   53 B1   17 A2   33 B2   54 B1   34 B2   76 A1   18 A2                 
  2.679   2.744   2.798   2.803   2.857   2.951   2.974   3.012
 55 B1   77 A1   78 A1   56 B1   57 B1   79 A1   80 A1   81 A1                 
  3.020   3.023   3.038   3.041   3.069   3.164   3.186   3.193
 58 B1   82 A1   83 A1   59 B1   35 B2   84 A1   36 B2   19 A2                 
  3.194   3.280   3.287   3.319   3.472   3.536   3.563   3.759
 60 B1   37 B2   20 A2   61 B1   38 B2   85 A1   62 B1   63 B1                 
  3.784   3.902   3.924   4.027   4.165   4.399   4.454   4.535
 86 A1   64 B1   87 A1   88 A1   89 A1   65 B1   90 A1   91 A1                 
  4.558   4.558   4.613   4.637   4.789   4.975   5.261   7.392
 21 A2   66 B1   92 A1   39 B2   67 B1   93 A1   68 B1   94 A1                 
  8.256   8.348   8.437  24.688  25.080  25.128  25.226  25.250
 40 B2   69 B1   95 A1   96 A1   97 A1   70 B1   98 A1   71 B1                 
 25.345  49.624 293.938 294.032 294.1471028.597
 99 A1  100 A1   41 B2   72 B1  101 A1  102 A1                                 

 Beta MOs, Restricted
 -- Occupied --                  
-490.03  -65.16  -58.52  -58.52  -58.52  -11.30  -11.26  -11.26
  1 A1    2 A1    3 A1    1 B2    1 B1    4 A1    2 B1    5 A1                 
-11.253 -11.253 -11.250  -9.840  -7.454  -7.445  -7.445  -3.193
  6 A1    3 B1    7 A1    8 A1    9 A1    4 B1    2 B2   10 A1                 
 -3.189  -3.189  -3.179  -3.179  -1.180  -1.077  -1.036  -0.977
  3 B2    5 B1   11 A1    1 A2   12 A1   13 A1    6 B1   14 A1                 
 -0.849  -0.820  -0.714  -0.648  -0.647  -0.608  -0.578  -0.535
  7 B1   15 A1   16 A1    8 B1   17 A1    9 B1   18 A1    4 B2                 
 -0.518  -0.496  -0.440  -0.417  -0.354  -0.335
 10 B1   19 A1    5 B2   11 B1    2 A2    6 B2                                 
 -- Virtual --                   
  0.013   0.020   0.020   0.026   0.029   0.030   0.037   0.040
 20 A1   12 B1   21 A1    7 B2   13 B1   22 A1   23 A1    8 B2                 
  0.043   0.047   0.048   0.054   0.055   0.059   0.063   0.065
  3 A2   14 B1   24 A1    9 B2    4 A2   25 A1   15 B1   26 A1                 
  0.067   0.067   0.069   0.069   0.076   0.082   0.087   0.091
 16 B1   10 B2   27 A1   11 B2   17 B1   28 A1   29 A1   18 B1                 
  0.100   0.101   0.101   0.119   0.123   0.140   0.156   0.165
 12 B2    5 A2   30 A1   19 B1   31 A1   32 A1   13 B2   20 B1                 
  0.174   0.177   0.179   0.196   0.198   0.203   0.207   0.214
 14 B2   33 A1    6 A2   34 A1   21 B1   35 A1   15 B2   36 A1                 
  0.223   0.225   0.229   0.229   0.231   0.242   0.245   0.248
 22 B1   16 B2   37 A1   23 B1    7 A2   38 A1   17 B2   24 B1                 
  0.252   0.254   0.264   0.278   0.289   0.294   0.314   0.337
 39 A1   25 B1   40 A1   41 A1   26 B1   27 B1   42 A1   28 B1                 
  0.342   0.353   0.378   0.413   0.416   0.433   0.442   0.487
 43 A1   18 B2   44 A1   45 A1   29 B1   30 B1   46 A1   47 A1                 
  0.494   0.512   0.513   0.607   0.615   0.619   0.645   0.647
 31 B1   32 B1   48 A1   49 A1   33 B1   19 B2   34 B1   50 A1                 
  0.717   0.734   0.736   0.738   0.743   0.748   0.766   0.775
 51 A1   35 B1   20 B2   36 B1   52 A1   21 B2    8 A2   53 A1                 
  0.787   0.788   0.805   0.829   0.835   0.866   0.892   0.898
  9 A2   37 B1   22 B2   10 A2   54 A1   23 B2   55 A1   56 A1                 
  0.925   0.926   0.939   0.940   0.967   0.999   1.012   1.035
 24 B2   38 B1   57 A1   39 B1   58 A1   59 A1   40 B1   60 A1                 
  1.064   1.078   1.119   1.125   1.125   1.126   1.189   1.202
 41 B1   61 A1   62 A1   42 B1   63 A1   43 B1   44 B1   25 B2                 
  1.212   1.230   1.289   1.301   1.308   1.345   1.374   1.499
 64 A1   11 A2   65 A1   45 B1   12 A2   26 B2   13 A2   66 A1                 
  1.525   1.615   1.725   1.785   1.787   1.818   1.823   1.831
 27 B2   67 A1   46 B1   47 B1   68 A1   69 A1   28 B2   14 A2                 
  1.881   1.907   1.909   1.949   1.995   2.006   2.042   2.104
 29 B2   70 A1   48 B1   71 A1   49 B1   30 B2   15 A2   50 B1                 
  2.151   2.217   2.218   2.219   2.235   2.248   2.272   2.322
 72 A1   51 B1   31 B2   16 A2   52 B1   73 A1   32 B2   74 A1                 
  2.346   2.354   2.366   2.375   2.443   2.594   2.616   2.645
 75 A1   53 B1   17 A2   33 B2   54 B1   34 B2   76 A1   18 A2                 
  2.679   2.744   2.798   2.803   2.857   2.951   2.974   3.012
 55 B1   77 A1   78 A1   56 B1   57 B1   79 A1   80 A1   81 A1                 
  3.020   3.023   3.038   3.041   3.069   3.164   3.186   3.193
 58 B1   82 A1   83 A1   59 B1   35 B2   84 A1   36 B2   19 A2                 
  3.194   3.280   3.287   3.319   3.472   3.536   3.563   3.759
 60 B1   37 B2   20 A2   61 B1   38 B2   85 A1   62 B1   63 B1                 
  3.784   3.902   3.924   4.027   4.165   4.399   4.454   4.535
 86 A1   64 B1   87 A1   88 A1   89 A1   65 B1   90 A1   91 A1                 
  4.558   4.558   4.613   4.637   4.789   4.975   5.261   7.392
 21 A2   66 B1   92 A1   39 B2   67 B1   93 A1   68 B1   94 A1                 
  8.256   8.348   8.437  24.688  25.080  25.128  25.226  25.250
 40 B2   69 B1   95 A1   96 A1   97 A1   70 B1   98 A1   71 B1                 
 25.345  49.624 293.938 294.032 294.1471028.597
 99 A1  100 A1   41 B2   72 B1  101 A1  102 A1                                 
 --------------------------------------------------------------

          Ground-State Mulliken Net Atomic Charges

     Atom                 Charge (a.u.)
  ----------------------------------------
      1 H                     0.271627
      2 C                    -0.223084
      3 C                    -0.160080
      4 H                     0.237445
      5 C                    -0.473128
      6 H                     0.191304
      7 C                    -0.160080
      8 H                     0.237445
      9 C                    -0.223084
     10 H                     0.271627
     11 C                     0.379414
     12 Br                   -0.349404
  ----------------------------------------
  Sum of atomic charges =    -0.000000

 -----------------------------------------------------------------
                    Cartesian Multipole Moments
 -----------------------------------------------------------------
    Charge (ESU x 10^10)
                -0.0000
    Dipole Moment (Debye)
         X      -0.0000      Y      -0.0000      Z      -2.0242
       Tot       2.0242
    Quadrupole Moments (Debye-Ang)
        XX     -48.3719     XY       0.0000     YY     -58.7751
        XZ      -0.0000     YZ       0.0000     ZZ     -49.5405
    Octopole Moments (Debye-Ang^2)
       XXX       0.0000    XXY      -0.0000    XYY      -0.0000
       YYY      -0.0000    XXZ      11.2090    XYZ       0.0000
       YYZ      26.3296    XZZ       0.0000    YZZ      -0.0000
       ZZZ      41.1669
    Hexadecapole Moments (Debye-Ang^3)
      XXXX    -283.2620   XXXY      -0.0000   XXYY     -72.3519
      XYYY       0.0000   YYYY     -72.7186   XXXZ       0.0000
      XXYZ       0.0000   XYYZ      -0.0000   YYYZ       0.0000
      XXZZ    -223.8812   XYZZ       0.0000   YYZZ    -222.9386
      XZZZ      -0.0000   YZZZ       0.0000   ZZZZ   -1014.7374
 -----------------------------------------------------------------
Archival summary:
1\1\node20\SP\ProcedureUnspecified\BasisUnspecified\r165\krylov\SunOct1407:21:432018SunOct1407:21:432018\0\\#,ProcedureUnspecified,BasisUnspecified,\\0,1\Br\C,1,1.884\C,2,1.3922,1,119.37\H,3,1.0802,2,120.072,1,0,0\C,2,1.3922,1,119.37,3,-180,0\H,5,1.0802,2,120.072,1,-0,0\C,3,1.39311,2,119.031,1,-180,0\H,7,1.08133,3,119.353,2,180,0\C,5,1.39311,2,119.031,1,180,0\H,9,1.08133,5,119.353,2,180,0\C,7,1.39319,3,120.463,2,0,0\H,11,1.08081,7,120.124,3,-180,0\\HF=-2802.53979\\@

 Total job time:  7206.39s(wall), 48827.06s(cpu) 
 Sun Oct 14 07:21:43 2018

        *************************************************************
        *                                                           *
        *  Thank you very much for using Q-Chem.  Have a nice day.  *
        *                                                           *
        *************************************************************


