Q-Chem Developer Version!
                  Welcome to Q-Chem
     A Quantum Leap Into The Future Of Chemistry


 Q-Chem 5.1, Q-Chem, Inc., Pleasanton, CA (2018)

 Yihan Shao,  Zhengting Gan,  E. Epifanovsky,  A. T. B. Gilbert,  M. Wormit,  
 J. Kussmann,  A. W. Lange,  A. Behn,  Jia Deng,  Xintian Feng,  D. Ghosh,  
 M. Goldey,  P. R. Horn,  L. D. Jacobson,  I. Kaliman,  T. Kus,  A. Landau,  
 Jie Liu,  E. I. Proynov,  R. M. Richard,  R. P. Steele,  E. J. Sundstrom,  
 H. L. Woodcock III,  P. M. Zimmerman,  D. Zuev,  B. Albrecht,  E. Alguire,  
 S. A. Baeppler,  D. Barton,  Z. Benda,  Y. A. Bernard,  E. J. Berquist,  
 K. B. Bravaya,  H. Burton,  D. Casanova,  Chun-Min Chang,  Yunqing Chen,  
 A. Chien,  K. D. Closser,  M. P. Coons,  S. Coriani,  S. Dasgupta,  
 A. L. Dempwolff,  M. Diedenhofen,  Hainam Do,  R. G. Edgar,  Po-Tung Fang,  
 S. Faraji,  S. Fatehi,  Qingguo Feng,  K. D. Fenk,  J. Fosso-Tande,  
 Qinghui Ge,  A. Ghysels,  G. Gidofalvi,  J. Gomes,  J. Gonthier,  A. Gunina,  
 D. Hait,  M. W. D. Hanson-Heine,  P. H. P. Harbach,  A. W. Hauser,  
 J. E. Herr,  E. G. Hohenstein,  Z. C. Holden,  Kerwin Hui,  B. C. Huynh,  
 T.-C. Jagau,  Hyunjun Ji,  B. Kaduk,  K. Khistyaev,  Jaehoon Kim,  
 P. Klunzinger,  K. Koh,  D. Kosenkov,  L. Koulias,  T. Kowalczyk,  
 C. M. Krauter,  A. Kunitsa,  Ka Un Lao,  A. Laurent,  K. V. Lawler,  
 Joonho Lee,  D. Lefrancois,  S. Lehtola,  D. S. Levine,  Yi-Pei Li,  
 You-Sheng Lin,  Fenglai Liu,  E. Livshits,  A. Luenser,  P. Manohar,  
 E. Mansoor,  S. F. Manzer,  Shan-Ping Mao,  Yuezhi Mao,  N. Mardirossian,  
 A. V. Marenich,  T. Markovich,  L. A. Martinez-Martinez,  S. A. Maurer,  
 N. J. Mayhall,  S. C. McKenzie,  J.-M. Mewes,  A. F. Morrison,  
 J. W. Mullinax,  K. Nanda,  T. S. Nguyen-Beck,  R. Olivares-Amaya,  
 J. A. Parkhill,  T. M. Perrine,  F. Plasser,  P. Pokhilko,  S. Prager,  
 A. Prociuk,  E. Ramos,  D. R. Rehn,  F. Rob,  M. Schneider,  N. Sergueev,  
 S. M. Sharada,  S. Sharma,  D. W. Small,  T. Stauch,  T. Stein,  
 Yu-Chuan Su,  A. J. W. Thom,  A. Tkatchenko,  T. Tsuchimochi,  N. M. Tubman,  
 L. Vogt,  M. L. Vidal,  O. Vydrov,  M. A. Watson,  J. Wenzel,  
 M. de Wergifosse,  T. A. Wesolowski,  A. White,  J. Witte,  A. Yamada,  
 Jun Yang,  K. Yao,  S. Yeganeh,  S. R. Yost,  Zhi-Qiang You,  A. Zech,  
 Igor Ying Zhang,  Xing Zhang,  Yan Zhao,  Ying Zhu,  B. R. Brooks,  
 G. K. L. Chan,  C. J. Cramer,  M. S. Gordon,  W. J. Hehre,  A. Klamt,  
 M. W. Schmidt,  C. D. Sherrill,  D. G. Truhlar,  A. Aspuru-Guzik,  R. Baer,  
 A. T. Bell,  N. A. Besley,  Jeng-Da Chai,  A. E. DePrince, III,  
 R. A. DiStasio Jr.,  A. Dreuw,  B. D. Dunietz,  T. R. Furlani,  
 Chao-Ping Hsu,  Yousung Jung,  Jing Kong,  D. S. Lambrecht,  WanZhen Liang,  
 C. Ochsenfeld,  V. A. Rassolov,  L. V. Slipchenko,  J. E. Subotnik,  
 T. Van Voorhis,  J. M. Herbert,  A. I. Krylov,  P. M. W. Gill,  M. Head-Gordon

 Contributors to earlier versions of Q-Chem not listed above: 
 R. D. Adamson,  B. Austin,  J. Baker,  G. J. O. Beran,  K. Brandhorst,  
 S. T. Brown,  E. F. C. Byrd,  A. K. Chakraborty,  C.-L. Cheng,  
 Siu Hung Chien,  D. M. Chipman,  D. L. Crittenden,  H. Dachsel,  
 R. J. Doerksen,  A. D. Dutoi,  L. Fusti-Molnar,  W. A. Goddard III,  
 A. Golubeva-Zadorozhnaya,  S. R. Gwaltney,  G. Hawkins,  A. Heyden,  
 S. Hirata,  G. Kedziora,  F. J. Keil,  C. Kelley,  Jihan Kim,  R. A. King,  
 R. Z. Khaliullin,  P. P. Korambath,  W. Kurlancheek,  A. M. Lee,  M. S. Lee,  
 S. V. Levchenko,  Ching Yeh Lin,  D. Liotard,  R. C. Lochan,  I. Lotan,  
 P. E. Maslen,  N. Nair,  D. P. O'Neill,  D. Neuhauser,  E. Neuscamman,  
 C. M. Oana,  R. Olson,  B. Peters,  R. Peverati,  P. A. Pieniazek,  
 Y. M. Rhee,  J. Ritchie,  M. A. Rohrdanz,  E. Rosta,  N. J. Russ,  
 H. F. Schaefer III,  N. E. Schultz,  N. Shenvi,  A. C. Simmonett,  A. Sodt,  
 D. Stuck,  K. S. Thanthiriwatte,  V. Vanovschi,  Tao Wang,  A. Warshel,  
 C. F. Williams,  Q. Wu,  X. Xu,  W. Zhang

 Please cite Q-Chem as follows:
 Y. Shao et al., Mol. Phys. 113, 184-215 (2015)
 DOI: 10.1080/00268976.2014.952696

 Q-Chem 5.1.1 for Intel X86 EM64T Linux

 Parts of Q-Chem use Armadillo 8.300.2 (Tropical Shenanigans).
 http://arma.sourceforge.net/

 Q-Chem begins on Mon Oct 22 11:28:52 2018  

node24
Host: 0

     Scratch files written to /scratch/krylov/qchem2997//
Input Ideriv = 0
Curr. Ideriv = -1
Max.  Ideriv = 0

Checking the input file for inconsistencies... 	...done.

--------------------------------------------------------------
User input:
--------------------------------------------------------------
$comment
Optimized Br-Bz, XAS calculation at the neutral geom
6-311(2+,+), core uncontracted on C and Br (lowest s and lowest p)
$end

$molecule
0 1
H        -2.1434404908    0.0000000000    0.0671963029
C        -1.2132672529    0.0000000000   -0.4819994175
C        -1.2050294832    0.0000000000   -1.8750832747
H        -2.1443854307    0.0000000000   -2.4107048522
C         0.0000000000    0.0000000000   -2.5742906665
H         0.0000000000    0.0000000000   -3.6551007732
C         1.2050294832    0.0000000000   -1.8750832747
H         2.1443854307    0.0000000000   -2.4107048522
C         1.2132672529    0.0000000000   -0.4819994175
H         2.1434404908    0.0000000000    0.0671963029
C         0.0000000000    0.0000000000    0.2007961851
Br        0.0000000000    0.0000000000    2.0847967058
$end

$rem
   JOB_TYPE  =  SP
   BASIS  =  general
   METHOD  =  EOM-CCSD
   n_frozen_core = 11 
   CVS_EE_STATES = [6,0,6,6]
   EOM_DAVIDSON_MAXVECTORS = 120
   CC_MEMORY = 80000
   cc_trans_prop = 1
   eom_shift = 06872    187 eV
$end

$basis
H    0
S    3    1.000000
   3.38650000E+01    2.54938000E-02 
   5.09479000E+00    1.90373000E-01 
   1.15879000E+00    8.52161000E-01 
S    1    1.000000
   3.25840000E-01    1.00000000E+00 
S    1    1.000000
   1.02741000E-01    1.00000000E+00 
S    1    1.000000
   3.60000000E-02    1.00000000E+00 
P    1    1.000000
   7.50000000E-01    1.00000000E+00 
****
C    0
S    1    1.000000
   4.56324000E+03    1.96665000E-03 
S    1    1.000000
   6.82024000E+02    1.52306000E-02
S    1    1.000000   
   1.54973000E+02    7.61269000E-02
S    1    1.000000   
   4.44553000E+01    2.60801000E-01 
S    1    1.000000
   1.30290000E+01    6.16462000E-01
S    1    1.000000   
   1.82773000E+00    2.21006000E-01 
SP   3    1.000000
   2.09642000E+01    1.14660000E-01   4.02487000E-02 
   4.80331000E+00    9.19999000E-01   2.37594000E-01 
   1.45933000E+00   -3.03068000E-03   8.15854000E-01 
SP   1    1.000000
   4.83456000E-01    1.00000000E+00   1.00000000E+00 
SP   1    1.000000
   1.45585000E-01    1.00000000E+00   1.00000000E+00 
SP   1    1.000000
   4.38000000E-02    1.00000000E+00   1.00000000E+00 
SP   1    1.000000
   1.31927711E-02    1.00000000E+00   1.00000000E+00 
D    1    1.000000
   6.26000000E-01    1.00000000E+00 
****
Br   0
S    1    1.000000
   4.39700000E+05    8.13000000E-04 
S    1    1.000000
   6.60300000E+04    6.28500000E-03
S    1    1.000000   
   1.51400000E+04    3.19200000E-02
S    1    1.000000   
   4.31700000E+03    1.28800000E-01
S    1    1.000000   
   1.41400000E+03    3.94600000E-01
S    1    1.000000   
   5.23900000E+02    5.41300000E-01 
S    3    1.000000
   5.23900000E+02    1.83100000E-01 
   2.07700000E+02    6.17600000E-01 
   8.65400000E+01    2.53800000E-01 
S    1    1.000000
   3.05200000E+01    1.00000000E+00 
S    1    1.000000
   1.29800000E+01    1.00000000E+00 
S    1    1.000000
   4.41200000E+00    1.00000000E+00 
S    1    1.000000
   1.86200000E+00    1.00000000E+00 
S    1    1.000000
   3.93200000E-01    1.00000000E+00 
S    1    1.000000
   1.40000000E-01    1.00000000E+00 
P    1    1.000000
   2.95700000E+03    2.22600000E-02 
P    1    1.000000
   7.00300000E+02    1.80200000E-01
P    1    1.000000   
   2.24600000E+02    8.62400000E-01 
P    3    1.000000
   8.25900000E+01    3.44000000E-01 
   3.31900000E+01    5.07100000E-01 
   1.42000000E+01    2.59000000E-01 
P    3    1.000000
   1.42000000E+01    7.96500000E-02 
   7.43800000E+00    3.73400000E-01 
   3.52600000E+00    6.04900000E-01 
P    1    1.000000
   1.59500000E+00    1.00000000E+00 
P    1    1.000000
   8.46200000E-01    1.00000000E+00 
P    1    1.000000
   3.18600000E-01    1.00000000E+00 
P    1    1.000000
   1.09600000E-01    1.00000000E+00 
D    4    1.000000
   1.34800000E+02    1.83100000E-02 
   3.63900000E+01    1.35000000E-01 
   1.21600000E+01    4.26100000E-01 
   4.34100000E+00    6.04300000E-01 
D    1    1.000000
   1.53500000E+00    1.00000000E+00 
SP   1    1.000000
   3.90000000E-02    1.00000000E+00   1.00000000E+00 
SP   1    1.000000
   1.17469880E-02    1.00000000E+00   1.00000000E+00 
D    1    1.000000
   4.15000000E-01    1.00000000E+00 
****
$end
--------------------------------------------------------------
 ----------------------------------------------------------------
             Standard Nuclear Orientation (Angstroms)
    I     Atom           X                Y                Z
 ----------------------------------------------------------------
    1      H      -2.1434404908     0.0000000000    -0.2235906397
    2      C      -1.2132672529    -0.0000000000    -0.7727863601
    3      C      -1.2050294832    -0.0000000000    -2.1658702173
    4      H      -2.1443854307    -0.0000000000    -2.7014917948
    5      C       0.0000000000    -0.0000000000    -2.8650776091
    6      H       0.0000000000    -0.0000000000    -3.9458877158
    7      C       1.2050294832    -0.0000000000    -2.1658702173
    8      H       2.1443854307    -0.0000000000    -2.7014917948
    9      C       1.2132672529    -0.0000000000    -0.7727863601
   10      H       2.1434404908    -0.0000000000    -0.2235906397
   11      C       0.0000000000    -0.0000000000    -0.0899907575
   12      Br     -0.0000000000     0.0000000000     1.7940097632
 ----------------------------------------------------------------
 Molecular Point Group                 C2v   NOp =  4
 Largest Abelian Subgroup              C2v   NOp =  4
 Nuclear Repulsion Energy =   432.5066877038 hartrees
 There are       38 alpha and       38 beta electrons

 Q-Chem warning in module forms1/BasisType.C, line 1703:

 Setting pure/cartesian flag to 2111 for general basis


 Requested basis set is non-standard
 There are 124 shells and 284 basis functions
MEM_TOTAL is adjusted to CC_MEMORY + MEM_STATIC!
 Total memory of 80192MB is distributed as follows: 
   QALLOC including MEM_STATIC uses 192MB
   MEM_STATIC is set to 192MB
   CCMAN JOB total memory use is  80000MB
 Warning: actual memory use might exceed 80192MB

 Total QAlloc Memory Limit    192 MB
 Mega-Array Size       188 MB
 MEM_STATIC part       192 MB

                       Distance Matrix (Angstroms)
             H (  1)   C (  2)   C (  3)   H (  4)   C (  5)   H (  6)
   C (  2)  1.080203
   C (  3)  2.157096  1.393108
   H (  4)  2.477901  2.141702  1.081333
   C (  5)  3.401733  2.418615  1.393193  2.150616
   H (  6)  4.295327  3.397144  2.149548  2.479296  1.080810
   C (  7)  3.871008  2.790850  2.410059  3.391972  1.393193  2.149548
   H (  8)  4.952317  3.872175  3.391972  4.288771  2.150616  2.479296
   C (  9)  3.401338  2.426535  2.790850  3.872175  2.418615  3.397144
   H ( 10)  4.286881  3.401338  3.871008  4.952317  3.401733  4.295327
   C ( 11)  2.147600  1.392202  2.400286  3.379101  2.775087  3.855897
   Br( 12)  2.943645  2.839095  4.139172  4.980755  4.659087  5.739897
             C (  7)   H (  8)   C (  9)   H ( 10)   C ( 11)
   H (  8)  1.081333
   C (  9)  1.393108  2.141702
   H ( 10)  2.157096  2.477901  1.080203
   C ( 11)  2.400286  3.379101  1.392202  2.147600
   Br( 12)  4.139172  4.980755  2.839095  2.943645  1.884001

 A cutoff of  1.0D-14 yielded   6232 shell pairs
 There are     37168 function pairs (     39627 Cartesian)

 -------------------------------------------------------
 OpenMP Integral Computing Module                       
 Release: version 1.0, May 2013, Q-Chem Inc. Pittsburgh 
 -------------------------------------------------------
 Integral Job Info:
 Integral job number is                      11
 Integral operator is                         1
 short-range coefficients                     0
 long-range coefficients              100000000
 Omega coefficients                           0
 if combine SR and LR in K                    0
 Integral screening is                        0
 Integral computing path is                   2
 max size of driver memory is            800000
 size of driver memory is                593474
 size of scratch memory is             29535480
 max col of scratch BK array               1296
 max len of scratch array in speh3          155
 max len of scratch index in speh4           18
 max int batch size is                      520
 min int batch size is                       52
 fixed nKL is                                46
 max L of basis functions is                  2
 order of int derivative is                   0
 number of shells is                        124
 number of basis is                         293
 number of cartesian basis is               293
 number of contracted shell pairs          6232
 number of primitive shell pairs           8639
 maxK2 (contraction) of shell pair           16
 max number of K2 of shell pair               1
 max number of CS2 of shell pair           1723
 max number of PS2 of shell pair           1723
 mem total for path MDJ                  548620
 -------------------------------------------------------
 Smallest overlap matrix eigenvalue = 9.84E-09
 Linear dependence detected in AO basis
 Tighter screening thresholds may be required for diffuse basis sets
 Use S2THRESH > 14 and THRESH = 14 in case of SCF convergence issues
 Number of orthogonalized atomic orbitals = 277
 Maximum deviation from orthogonality = 5.333E-11

 Scale SEOQF with 1.000000e-01/1.000000e-01/1.000000e-01

 Standard Electronic Orientation quadrupole field applied
 Nucleus-field energy     =    -0.0000000255 hartrees
 Guess MOs from core Hamiltonian diagonalization

 -----------------------------------------------------------------------
  General SCF calculation program by
  Eric Jon Sundstrom, Paul Horn, Yuezhi Mao, Dmitri Zuev, Alec White,
  David Stuck, Shaama M.S., Shane Yost, Joonho Lee, David Small,
  Daniel Levine, Susi Lehtola, Hugh Burton, Evgeny Epifanovsky
 -----------------------------------------------------------------------
 Hartree-Fock
 using 8 threads for integral computing
 -------------------------------------------------------
 OpenMP Integral computing Module                
 Release: version 2.0, May 2017, Q-Chem Inc. Pleasanton 
 -------------------------------------------------------
 A restricted SCF calculation will be
 performed using DIIS
 SCF converges when DIIS error is below 1.0e-08
 ---------------------------------------
  Cycle       Energy         DIIS error
 ---------------------------------------
    1   -2380.3561895426      5.55e-01  
    2   -2189.7267579823      1.71e-01  
    3   -2231.8371165515      1.66e-01  
    4   -2744.2180238517      6.90e-02  
    5   -2754.2591574806      4.71e-02  
    6   -2780.7222312385      4.20e-02  
    7   -2798.2816868197      1.76e-02  
    8   -2799.4564093206      1.30e-02  
    9   -2802.4828206361      2.31e-03  
   10   -2802.5364052227      8.03e-04  
   11   -2802.5444956657      2.92e-04  
   12   -2802.5462732805      9.54e-05  
   13   -2802.5465476311      4.98e-05  
   14   -2802.5466653938      2.51e-05  
   15   -2802.5466915296      9.37e-06  
   16   -2802.5466956770      2.67e-06  
   17   -2802.5466958492      1.17e-06  
   18   -2802.5466958930      2.71e-07  
   19   -2802.5466958978      7.51e-08  
   20   -2802.5466958941      1.33e-08  
   21   -2802.5466958889      2.96e-09  Convergence criterion met
 ---------------------------------------
 SCF time:   CPU 171.97s  wall 24.00s 
 SCF   energy in the final basis set =    -2802.5466958889
 Total energy in the final basis set =    -2802.5466958889


 ------------------------------------------------------------------------------

   CCMAN2: suite of methods based on coupled cluster
           and equation of motion theories.

   Components:
   * libvmm-1.3-trunk
     by Evgeny Epifanovsky, Ilya Kaliman.
   * libtensor-2.5-trunk
     by Evgeny Epifanovsky, Michael Wormit, Dmitry Zuev, Sam Manzer, 
        Ilya Kaliman.
   * libcc-2.5-trunk
     by Evgeny Epifanovsky, Arik Landau, Tomasz Kus, Kirill Khistyaev, 
        Dmitry Zuev, Prashant Manohar, Xintian Feng, Anna Krylov, 
        Matthew Goldey, Alec White, Thomas Jagau, Kaushik Nanda, 
        Anastasia Gunina, Alexander Kunitsa, Joonho Lee.

   CCMAN original authors:
   Anna I. Krylov, C. David Sherrill, Steven R. Gwaltney,
   Edward F. C. Byrd (2000)
   Sergey V. Levchenko, Lyudmila V. Slipchenko, Tao Wang,
   Ana-Maria C. Cristian (2003)
   Piotr A. Pieniazek, C. Melania Oana, Evgeny Epifanovsky (2007)
   Prashant Manohar (2009)

 ------------------------------------------------------------------------------


 Allocating and initializing 80000MB of RAM...
 Calculation will run on 8 cores.


 Alpha MOs, Restricted
 -- Occupied --                  
-490.03  -65.16  -58.52  -58.52  -58.52  -11.30  -11.26  -11.26
  1 A1    2 A1    3 A1    1 B2    1 B1    4 A1    2 B1    5 A1                 
-11.254 -11.254 -11.251  -9.841  -7.454  -7.445  -7.445  -3.193
  6 A1    3 B1    7 A1    8 A1    9 A1    4 B1    2 B2   10 A1                 
 -3.189  -3.189  -3.179  -3.179  -1.180  -1.076  -1.036  -0.977
  3 B2    5 B1   11 A1    1 A2   12 A1   13 A1    6 B1   14 A1                 
 -0.849  -0.820  -0.714  -0.648  -0.647  -0.608  -0.578  -0.535
  7 B1   15 A1   16 A1    8 B1   17 A1    9 B1   18 A1    4 B2                 
 -0.518  -0.496  -0.440  -0.417  -0.354  -0.335
 10 B1   19 A1    5 B2   11 B1    2 A2    6 B2                                 
 -- Virtual --                   
  0.013   0.020   0.020   0.026   0.029   0.030   0.037   0.040
 20 A1   12 B1   21 A1    7 B2   13 B1   22 A1   23 A1    8 B2                 
  0.043   0.047   0.048   0.054   0.055   0.059   0.063   0.065
  3 A2   14 B1   24 A1    9 B2    4 A2   25 A1   15 B1   26 A1                 
  0.067   0.067   0.069   0.069   0.076   0.082   0.087   0.091
 16 B1   10 B2   27 A1   11 B2   17 B1   28 A1   29 A1   18 B1                 
  0.100   0.101   0.101   0.119   0.123   0.140   0.156   0.165
 12 B2    5 A2   30 A1   19 B1   31 A1   32 A1   13 B2   20 B1                 
  0.174   0.177   0.179   0.196   0.198   0.203   0.207   0.214
 14 B2   33 A1    6 A2   34 A1   21 B1   35 A1   15 B2   36 A1                 
  0.223   0.225   0.229   0.229   0.231   0.241   0.245   0.247
 22 B1   16 B2   37 A1   23 B1    7 A2   38 A1   17 B2   24 B1                 
  0.252   0.254   0.263   0.278   0.289   0.293   0.314   0.337
 39 A1   25 B1   40 A1   41 A1   26 B1   27 B1   42 A1   28 B1                 
  0.342   0.353   0.377   0.413   0.416   0.433   0.442   0.487
 43 A1   18 B2   44 A1   45 A1   29 B1   30 B1   46 A1   47 A1                 
  0.494   0.511   0.512   0.606   0.615   0.619   0.645   0.647
 31 B1   32 B1   48 A1   49 A1   33 B1   19 B2   34 B1   50 A1                 
  0.716   0.729   0.736   0.737   0.741   0.747   0.766   0.774
 51 A1   35 B1   20 B2   36 B1   52 A1   21 B2    8 A2   53 A1                 
  0.787   0.787   0.805   0.824   0.829   0.866   0.888   0.897
  9 A2   37 B1   22 B2   54 A1   10 A2   23 B2   55 A1   56 A1                 
  0.924   0.925   0.935   0.939   0.960   0.985   1.012   1.031
 38 B1   24 B2   57 A1   39 B1   58 A1   59 A1   40 B1   60 A1                 
  1.059   1.069   1.097   1.098   1.112   1.126   1.177   1.203
 41 B1   61 A1   42 B1   62 A1   63 A1   43 B1   44 B1   25 B2                 
  1.203   1.231   1.286   1.293   1.308   1.345   1.374   1.472
 64 A1   11 A2   65 A1   45 B1   12 A2   26 B2   13 A2   66 A1                 
  1.526   1.614   1.725   1.776   1.785   1.817   1.823   1.831
 27 B2   67 A1   46 B1   68 A1   47 B1   69 A1   28 B2   14 A2                 
  1.881   1.905   1.907   1.947   1.990   2.006   2.042   2.102
 29 B2   70 A1   48 B1   71 A1   49 B1   30 B2   15 A2   50 B1                 
  2.147   2.217   2.218   2.219   2.235   2.248   2.272   2.320
 72 A1   51 B1   31 B2   16 A2   52 B1   73 A1   32 B2   74 A1                 
  2.345   2.352   2.366   2.375   2.443   2.594   2.614   2.645
 75 A1   53 B1   17 A2   33 B2   54 B1   34 B2   76 A1   18 A2                 
  2.676   2.742   2.796   2.796   2.849   2.929   2.972   2.991
 55 B1   77 A1   78 A1   56 B1   57 B1   79 A1   80 A1   81 A1                 
  3.009   3.022   3.031   3.039   3.069   3.161   3.186   3.193
 58 B1   82 A1   83 A1   59 B1   35 B2   84 A1   36 B2   60 B1                 
  3.193   3.280   3.286   3.319   3.472   3.530   3.563   3.756
 19 A2   37 B2   20 A2   61 B1   38 B2   85 A1   62 B1   63 B1                 
  3.780   3.899   3.921   4.018   4.139   4.383   4.438   4.501
 86 A1   64 B1   87 A1   88 A1   89 A1   65 B1   90 A1   91 A1                 
  4.515   4.558   4.609   4.638   4.789   4.960   5.114   5.261
 66 B1   21 A2   92 A1   39 B2   67 B1   93 A1   94 A1   68 B1                 
  5.439   5.446   5.759   5.778   6.183   7.389   8.253   8.346
 95 A1   69 B1   96 A1   70 B1   97 A1   98 A1   40 B2   71 B1                 
  8.445  20.615  20.685  20.706  20.824  20.851  21.124  49.058
 99 A1  100 A1  101 A1   72 B1  102 A1   73 B1  103 A1  104 A1                 
 80.185  80.258  80.280  80.379  80.404  80.610 241.920 242.011
105 A1  106 A1   74 B1  107 A1   75 B1  108 A1   41 B2   76 B1                 
242.125 322.027 322.095 322.116 322.200 322.221 322.388 485.333
109 A1  110 A1  111 A1   77 B1  112 A1   78 B1  113 A1  114 A1                 
*******1431.6581431.6781431.7481431.7671431.9061562.9251562.997
115 A1  116 A1   79 B1  117 A1   80 B1  118 A1   42 B2   81 B1                 
*******2536.8067647.8027647.8517647.9148749.8358749.8908749.907
119 A1  120 A1   43 B2   82 B1  121 A1  122 A1  123 A1   83 B1                 
*******8749.9808750.0919510.965************************
124 A1   84 B1  125 A1  126 A1  127 A1  128 A1  129 A1                         

 Beta MOs, Restricted
 -- Occupied --                  
-490.03  -65.16  -58.52  -58.52  -58.52  -11.30  -11.26  -11.26
  1 A1    2 A1    3 A1    1 B2    1 B1    4 A1    2 B1    5 A1                 
-11.254 -11.254 -11.251  -9.841  -7.454  -7.445  -7.445  -3.193
  6 A1    3 B1    7 A1    8 A1    9 A1    4 B1    2 B2   10 A1                 
 -3.189  -3.189  -3.179  -3.179  -1.180  -1.076  -1.036  -0.977
  3 B2    5 B1   11 A1    1 A2   12 A1   13 A1    6 B1   14 A1                 
 -0.849  -0.820  -0.714  -0.648  -0.647  -0.608  -0.578  -0.535
  7 B1   15 A1   16 A1    8 B1   17 A1    9 B1   18 A1    4 B2                 
 -0.518  -0.496  -0.440  -0.417  -0.354  -0.335
 10 B1   19 A1    5 B2   11 B1    2 A2    6 B2                                 
 -- Virtual --                   
  0.013   0.020   0.020   0.026   0.029   0.030   0.037   0.040
 20 A1   12 B1   21 A1    7 B2   13 B1   22 A1   23 A1    8 B2                 
  0.043   0.047   0.048   0.054   0.055   0.059   0.063   0.065
  3 A2   14 B1   24 A1    9 B2    4 A2   25 A1   15 B1   26 A1                 
  0.067   0.067   0.069   0.069   0.076   0.082   0.087   0.091
 16 B1   10 B2   27 A1   11 B2   17 B1   28 A1   29 A1   18 B1                 
  0.100   0.101   0.101   0.119   0.123   0.140   0.156   0.165
 12 B2    5 A2   30 A1   19 B1   31 A1   32 A1   13 B2   20 B1                 
  0.174   0.177   0.179   0.196   0.198   0.203   0.207   0.214
 14 B2   33 A1    6 A2   34 A1   21 B1   35 A1   15 B2   36 A1                 
  0.223   0.225   0.229   0.229   0.231   0.241   0.245   0.247
 22 B1   16 B2   37 A1   23 B1    7 A2   38 A1   17 B2   24 B1                 
  0.252   0.254   0.263   0.278   0.289   0.293   0.314   0.337
 39 A1   25 B1   40 A1   41 A1   26 B1   27 B1   42 A1   28 B1                 
  0.342   0.353   0.377   0.413   0.416   0.433   0.442   0.487
 43 A1   18 B2   44 A1   45 A1   29 B1   30 B1   46 A1   47 A1                 
  0.494   0.511   0.512   0.606   0.615   0.619   0.645   0.647
 31 B1   32 B1   48 A1   49 A1   33 B1   19 B2   34 B1   50 A1                 
  0.716   0.729   0.736   0.737   0.741   0.747   0.766   0.774
 51 A1   35 B1   20 B2   36 B1   52 A1   21 B2    8 A2   53 A1                 
  0.787   0.787   0.805   0.824   0.829   0.866   0.888   0.897
  9 A2   37 B1   22 B2   54 A1   10 A2   23 B2   55 A1   56 A1                 
  0.924   0.925   0.935   0.939   0.960   0.985   1.012   1.031
 38 B1   24 B2   57 A1   39 B1   58 A1   59 A1   40 B1   60 A1                 
  1.059   1.069   1.097   1.098   1.112   1.126   1.177   1.203
 41 B1   61 A1   42 B1   62 A1   63 A1   43 B1   44 B1   25 B2                 
  1.203   1.231   1.286   1.293   1.308   1.345   1.374   1.472
 64 A1   11 A2   65 A1   45 B1   12 A2   26 B2   13 A2   66 A1                 
  1.526   1.614   1.725   1.776   1.785   1.817   1.823   1.831
 27 B2   67 A1   46 B1   68 A1   47 B1   69 A1   28 B2   14 A2                 
  1.881   1.905   1.907   1.947   1.990   2.006   2.042   2.102
 29 B2   70 A1   48 B1   71 A1   49 B1   30 B2   15 A2   50 B1                 
  2.147   2.217   2.218   2.219   2.235   2.248   2.272   2.320
 72 A1   51 B1   31 B2   16 A2   52 B1   73 A1   32 B2   74 A1                 
  2.345   2.352   2.366   2.375   2.443   2.594   2.614   2.645
 75 A1   53 B1   17 A2   33 B2   54 B1   34 B2   76 A1   18 A2                 
  2.676   2.742   2.796   2.796   2.849   2.929   2.972   2.991
 55 B1   77 A1   78 A1   56 B1   57 B1   79 A1   80 A1   81 A1                 
  3.009   3.022   3.031   3.039   3.069   3.161   3.186   3.193
 58 B1   82 A1   83 A1   59 B1   35 B2   84 A1   36 B2   60 B1                 
  3.193   3.280   3.286   3.319   3.472   3.530   3.563   3.756
 19 A2   37 B2   20 A2   61 B1   38 B2   85 A1   62 B1   63 B1                 
  3.780   3.899   3.921   4.018   4.139   4.383   4.438   4.501
 86 A1   64 B1   87 A1   88 A1   89 A1   65 B1   90 A1   91 A1                 
  4.515   4.558   4.609   4.638   4.789   4.960   5.114   5.261
 66 B1   21 A2   92 A1   39 B2   67 B1   93 A1   94 A1   68 B1                 
  5.439   5.446   5.759   5.778   6.183   7.389   8.253   8.346
 95 A1   69 B1   96 A1   70 B1   97 A1   98 A1   40 B2   71 B1                 
  8.445  20.615  20.685  20.706  20.824  20.851  21.124  49.058
 99 A1  100 A1  101 A1   72 B1  102 A1   73 B1  103 A1  104 A1                 
 80.185  80.258  80.280  80.379  80.404  80.610 241.920 242.011
105 A1  106 A1   74 B1  107 A1   75 B1  108 A1   41 B2   76 B1                 
242.125 322.027 322.095 322.116 322.200 322.221 322.388 485.333
109 A1  110 A1  111 A1   77 B1  112 A1   78 B1  113 A1  114 A1                 
*******1431.6581431.6781431.7481431.7671431.9061562.9251562.997
115 A1  116 A1   79 B1  117 A1   80 B1  118 A1   42 B2   81 B1                 
*******2536.8067647.8027647.8517647.9148749.8358749.8908749.907
119 A1  120 A1   43 B2   82 B1  121 A1  122 A1  123 A1   83 B1                 
*******8749.9808750.0919510.965************************
124 A1   84 B1  125 A1  126 A1  127 A1  128 A1  129 A1                         

 Occupation and symmetry of molecular orbitals

 Point group: C2v (4 irreducible representations).

                           A1   A2   B1   B2    All 
 ----------------------------------------------------
 All molecular orbitals:
  - Alpha                  129  21   84   43    277 
  - Beta                   129  21   84   43    277 
 ----------------------------------------------------
 Alpha orbitals:
  - Frozen occupied        7    0    3    1     11  
  - Active occupied        12   2    8    5     27  
  - Active virtual         110  19   73   37    239 
  - Frozen virtual         0    0    0    0     0   
 ----------------------------------------------------
 Beta orbitals:
  - Frozen occupied        7    0    3    1     11  
  - Active occupied        12   2    8    5     27  
  - Active virtual         110  19   73   37    239 
  - Frozen virtual         0    0    0    0     0   
 ----------------------------------------------------

 Import integrals:   CPU 0.00 s  wall 0.00 s

 Import integrals:   CPU 867.04 s  wall 124.44 s

 MP2 amplitudes:   CPU 6.64 s  wall 5.19 s

Running a double precision version
           CCSD T amplitudes will be solved using DIIS.

           Start     Size      MaxIter   EConv     TConv     
           3         7         100       1.00e-06  1.00e-04  
 ------------------------------------------------------------------------------
           Energy (a.u.)   Ediff      Tdiff       Comment
 ------------------------------------------------------------------------------
         -2803.81114827                           
     1   -2803.76975999   4.14e-02   1.02e+00     
     2   -2803.80950354   3.97e-02   1.42e-01     
     3   -2803.80759626   1.91e-03   4.90e-02     
     4   -2803.81092229   3.33e-03   1.44e-02     Switched to DIIS steps.
     5   -2803.81190196   9.80e-04   1.19e-02     
     6   -2803.81190790   5.94e-06   2.21e-03     
     7   -2803.81190109   6.80e-06   1.11e-03     
     8   -2803.81190265   1.56e-06   2.14e-04     
     9   -2803.81190210   5.49e-07   8.07e-05     
 ------------------------------------------------------------------------------
         -2803.81190210                           CCSD T converged.

End of double precision
 SCF energy                 = -2802.54669589
 MP2 energy                 = -2803.81114827
 CCSD correlation energy     =    -1.26520621
 CCSD total energy           = -2803.81190210

 CCSD  T1^2 = 0.0085  T2^2 = 0.4125  Leading amplitudes:

 Amplitude    Orbitals with energies
 -0.0179       2 (A2) A                  ->    8 (A2) A                   
              -0.3538                          0.7661                     
 -0.0179       2 (A2) B                  ->    8 (A2) B                   
              -0.3538                          0.7661                     
 -0.0130       4 (B2) A                  ->    21 (B2) A                  
              -0.5346                          0.7475                     
 -0.0130       4 (B2) B                  ->    21 (B2) B                  
              -0.5346                          0.7475                     

 Amplitude    Orbitals with energies
 -0.0688       2 (A2) A      2 (A2) B    ->    5 (A2) A      5 (A2) B     
              -0.3538       -0.3538            0.1009        0.1009       
  0.0688       2 (A2) A      2 (A2) B    ->    5 (A2) B      5 (A2) A     
              -0.3538       -0.3538            0.1009        0.1009       
  0.0688       2 (A2) B      2 (A2) A    ->    5 (A2) A      5 (A2) B     
              -0.3538       -0.3538            0.1009        0.1009       
 -0.0688       2 (A2) B      2 (A2) A    ->    5 (A2) B      5 (A2) A     
              -0.3538       -0.3538            0.1009        0.1009       

 Computing CCSD intemediates for later calculations in double precision
 Finished.

Running a double precision version
           CCSD Lambda amplitudes will be solved using DIIS.
           Start     Size      MaxIter   EConv     LConv     
           3         7         100       1.00e-06  1.00e-04  
 ------------------------------------------------------------------------------
            Enorm      Ldiff       Comment
 ------------------------------------------------------------------------------
     1     5.94e-02   4.56e-02     
     2     1.13e-02   1.28e-03     
     3     3.86e-03   1.74e-03     
     4     1.58e-03   3.23e-04     Switched to DIIS steps.
     5     4.90e-04   3.14e-04     
     6     2.22e-04   7.67e-05     
     7     6.33e-05   2.88e-05     
     8     2.70e-05   4.42e-06     
     9     8.79e-06   1.05e-06     
    10     3.47e-06   4.22e-08     
    11     1.39e-06   1.27e-07     
    12     4.64e-07   8.05e-08     
 ------------------------------------------------------------------------------
                                   CCSD Lambda converged.

 CCSD calculation:   CPU 3241.62 s  wall 446.44 s

        Solving for CVS-EOMEE-CCSD A1 singlet states.

        CVS-EOMEE-CCSD/MP2 right amplitudes will be solved using Davidson.
        Amplitudes will be solved using shifted  algorithm.
     Hard-coded thresholds: 
     LinDepThresh=1.00e-15  NormThresh=1.00e-06  ReorthogonThresh=1.00e-02

      Roots     MaxVec    MaxIter   Precond   Conv      Shift    
      6         120       60        1         1.00e-05  6.87e+00  
 ------------------------------------------------------------------------------
      Iter ConvRoots NVecs ResNorm Current eigenvalues (eV)
 ------------------------------------------------------------------------------
      0    0      6     1.94e+00   303.4144   303.5801   304.0080   304.2636   304.5043   304.5503   
      1    0      12    1.95e+02   300.6056   300.7730   301.2155   301.4391   301.8621   301.9091   
      2    0      18    1.27e+00   289.5346   289.6962   289.9679   290.2486   290.4833   290.5421   
      3    0      24    2.00e-01   288.8481   289.0025   289.2895   289.6178   289.8369   289.8963   
      4    0      30    3.98e-02   288.7610   288.9158   289.2240   289.5707   289.7925   289.8522   
      5    0      36    2.87e-01   288.4574   288.6178   289.0339   289.4787   289.7171   289.7783   
      6    0      42    1.61e-02   288.0654   288.1908   288.6168   289.2983   289.5266   289.5946   
      7    0      48    1.82e-01   287.9659   288.0793   288.4366   289.1818   289.3251   289.4076   
      8    0      54    2.50e-03   287.9346   288.0403   288.3525   289.1384   289.2338   289.3247   
      9    0      60    3.49e-02   287.9295   288.0313   288.3069   289.1328   289.2119   289.3092   
      10   0      66    1.36e-02   287.9276   288.0257   288.2265   289.1213   289.1648   289.2738   
      11   0      72    3.42e-02   287.9238   288.0171   288.1526   289.0994   289.1028   289.2158   
      12   0      78    5.01e-03   287.9231   288.0152   288.1380   289.0734   289.0902   289.1931   
      13   0      84    1.61e-03   287.9231   288.0149   288.1287   289.0622   289.0840   289.1779   
      14   0      90    5.26e-03   287.9227   288.0138   288.1166   289.0566   289.0788   289.1629   
Found complex roots...
      15   0      96    8.30e-04   287.9226   288.0131   288.1075   289.0545   289.0742   289.1139   
      16   0      102   4.33e-03   287.9225   288.0130   288.1030   289.0498   289.0629   289.0829   
      17   2      108   5.22e-04   287.9226*  288.0130*  288.1020   289.0465   289.0515   289.0755   
      18   2      112   2.51e-03   287.9226*  288.0130*  288.1009   289.0278   289.0497   289.0723   
      19   2      116   1.97e-03   287.9226*  288.0129*  288.0993   289.0087   289.0477   289.0695   
      20   2      120   2.50e-03   287.9226*  288.0129*  288.0985   288.9784   289.0478   289.0676   
      21   2      10    4.29e-04   287.9226*  288.0129*  288.0983   288.9555   289.0471   289.0669   
      22   1      14    6.53e-03   287.9226*  288.0129   288.0980   288.9102   289.0475   289.0662   
      23   0      19    3.60e+01   196.4760   282.2113   287.9225   288.0129   288.0970   288.6539   
      24   0      25    1.07e+01   202.8139   113.0628   287.9225   288.0127   288.0888   288.3342   
      25   1      31    1.40e+01   254.6023   287.9225*  288.0128   288.0968   288.8345   289.0466   
      26   1      36    4.84e-02   287.9225*  288.0128   288.0806   288.1957   289.0463   289.0531   
      27   0      41    1.17e+00   287.3237   287.7985   287.9225   288.0129   288.1023   288.7059   
      28   0      47    3.99e+01   199.3838   218.2609   251.1557   287.9226   287.9299   288.0129   
      29   0      53    4.31e+00   278.9276   287.8569   287.9226   288.0129   288.1041   289.0059   
      30   1      59    7.12e+00   246.0141   98.1726   287.6881   287.9225*  288.0128   288.1035   
      31   0      64    1.23e+01   196.4102   257.4270   287.8764   287.9225   288.0129   288.1064   
      32   0      70    2.33e+00   102.2334   99.6243   280.6558   287.8256   287.9225   288.0129   
      33   1      76    1.53e+01   184.0917   134.0429   98.0420   93.3632   287.7988   287.9225*  
      34   2      81    1.80e+00   103.5277   100.0901   98.2865   287.8006   287.9225*  288.0129*  
      35   1      85    5.05e+00   250.8519   98.5014   98.1805   97.1709   287.8059   287.9225*  
      36   1      90    6.70e-01   99.3770   98.5657   98.4725   98.1557   287.7996   287.9225*  
      37   0      95    8.11e+00   98.7607   98.2321   98.1252   95.9387   91.4768   286.5870   
Rerun orthogonalization...
      38   0      101   1.06e+01   257.3780   263.0652   99.4494   98.5287   98.1917   98.1160   
      39   0      107   5.33e+00   133.4658   110.0358   98.4719   98.2634   98.1733   98.1571   
      40   0      113   1.87e+01   271.6700   99.7046   98.6019   275.5840   98.1663   98.1565   
      41   0      119   9.19e+00   165.0142   123.5118   106.9850   99.5723   98.7369   98.2451   
      42   0      120   2.95e+00   123.7603   107.3480   100.9924   99.5721   98.2964   98.1872   
      43   0      12    2.79e+01   174.0306   250.4122   99.8761   98.4922   98.1771   97.6614   
      44   0      18    2.53e+01   198.8993   155.7767   229.7913   99.9352   98.5927   98.2444   
      45   0      24    7.23e-02   102.9094   99.4685   99.3543   98.8500   98.2218   97.9246   
      46   0      30    1.10e+01   135.5991   110.0341   104.6811   101.9583   99.3382   99.1414   
      47   0      36    9.31e+00   123.6805   117.3957   103.8322   99.5387   99.0905   98.7500   
      48   0      42    2.74e+01   224.9128   147.8402   124.9129   103.3160   99.4339   99.3412   
      49   0      48    2.34e+01   187.8771   164.6267   129.8862   103.4692   100.1831   99.7762   
      50   0      54    1.44e-01   108.1929   101.1852   100.9606   99.7482   99.3022   99.1933   
      51   0      60    9.49e+00   210.0268   108.5105   103.4589   101.4963   100.8487   100.2747   
      52   0      66    3.67e-01   109.9490   104.2885   103.0800   101.7059   100.6462   99.8811   
      53   0      72    1.57e+01   147.3335   120.4766   114.5413   108.9922   102.7370   102.1442   
      54   0      78    1.00e+01   140.8427   115.5979   109.8707   105.9794   103.4527   101.9636   
      55   0      84    1.72e+01   162.2121   222.4709   110.8115   104.6965   103.2310   103.1470   
      56   0      90    2.81e+01   177.2307   201.2575   134.1831   110.0240   106.8192   104.3618   
      57   0      96    3.58e-01   112.6822   107.9663   106.7383   104.7796   103.6399   102.9568   
      58   0      102   1.50e+01   231.5447   116.1328   113.3999   110.8486   106.5298   105.7579   
      59   0      108   5.98e+00   114.3562   260.3380   110.9275   109.2983   107.5556   105.1545   

 EOMEE transition 1/A1
 Total energy = -2799.60938851 a.u.  Excitation energy = 114.3562 eV.
 R0^2 = 0.0000  R1^2 = 0.0524  R2_CCVV^2 = 0.8902  R2_COVV^2 = 0.0287  Res^2 = 1.28e+00
 Conv-d = no

 Amplitude    Transitions between orbitals
 -0.0710       3 (B1) A      3 (B1) B    ->    53 (B1) A     41 (B1) B    
  0.0710       3 (B1) A      3 (B1) B    ->    41 (B1) B     53 (B1) A    
  0.0710       3 (B1) B      3 (B1) A    ->    53 (B1) A     41 (B1) B    
 -0.0710       3 (B1) B      3 (B1) A    ->    53 (B1) B     41 (B1) A    

              Summary of significant orbitals:

               Number  Type             Irrep      Energy
               10      Occ  Alpha       3 (B1)    -11.2542
               10      Occ  Beta        3 (B1)    -11.2542
               135     Vir  Alpha      41 (B1)      1.0586
               176     Vir  Alpha      53 (B1)      2.3522
               135     Vir  Beta       41 (B1)      1.0586
               176     Vir  Beta       53 (B1)      2.3522


 EOMEE transition 2/A1
 Total energy = -2794.24465732 a.u.  Excitation energy = 260.3380 eV.
 R0^2 = 0.0000  R1^2 = 0.0070  R2_CCVV^2 = 0.9670  R2_COVV^2 = 0.0130  Res^2 = 3.26e+01
 Conv-d = no

 Amplitude    Transitions between orbitals
  0.0820       7 (A1) A      7 (A1) B    ->    34 (B1) A     28 (B1) B    
 -0.0820       7 (A1) A      7 (A1) B    ->    28 (B1) B     34 (B1) A    
 -0.0820       7 (A1) B      7 (A1) A    ->    34 (B1) A     28 (B1) B    
  0.0820       7 (A1) B      7 (A1) A    ->    34 (B1) B     28 (B1) A    

              Summary of significant orbitals:

               Number  Type             Irrep      Energy
               11      Occ  Alpha       7 (A1)    -11.2512
               11      Occ  Beta        7 (A1)    -11.2512
               94      Vir  Alpha      28 (B1)      0.3370
               109     Vir  Alpha      34 (B1)      0.6448
               94      Vir  Beta       28 (B1)      0.3370
               109     Vir  Beta       34 (B1)      0.6448


 EOMEE transition 3/A1
 Total energy = -2799.73539138 a.u.  Excitation energy = 110.9275 eV.
 R0^2 = 0.0000  R1^2 = 0.0029  R2_CCVV^2 = 0.9861  R2_COVV^2 = 0.0055  Res^2 = 4.43e-01
 Conv-d = no

 Amplitude    Transitions between orbitals
  0.1212       2 (B1) A      2 (B1) B    ->    34 (B1) A     28 (B1) B    
 -0.1212       2 (B1) A      2 (B1) B    ->    28 (B1) B     34 (B1) A    
 -0.1212       2 (B1) B      2 (B1) A    ->    34 (B1) A     28 (B1) B    
  0.1212       2 (B1) B      2 (B1) A    ->    34 (B1) B     28 (B1) A    
  0.1178       5 (A1) A      5 (A1) B    ->    34 (B1) A     28 (B1) B    
 -0.1178       5 (A1) A      5 (A1) B    ->    28 (B1) B     34 (B1) A    
 -0.1178       5 (A1) B      5 (A1) A    ->    34 (B1) A     28 (B1) B    
  0.1178       5 (A1) B      5 (A1) A    ->    34 (B1) B     28 (B1) A    
 -0.1177       2 (B1) A      2 (B1) B    ->    28 (B1) A     34 (B1) B    
  0.1177       2 (B1) A      2 (B1) B    ->    34 (B1) B     28 (B1) A    
  0.1177       2 (B1) B      2 (B1) A    ->    28 (B1) A     34 (B1) B    
 -0.1177       2 (B1) B      2 (B1) A    ->    28 (B1) B     34 (B1) A    
 -0.1144       5 (A1) A      5 (A1) B    ->    28 (B1) A     34 (B1) B    
  0.1144       5 (A1) A      5 (A1) B    ->    34 (B1) B     28 (B1) A    
  0.1144       5 (A1) B      5 (A1) A    ->    28 (B1) A     34 (B1) B    
 -0.1144       5 (A1) B      5 (A1) A    ->    28 (B1) B     34 (B1) A    

              Summary of significant orbitals:

               Number  Type             Irrep      Energy
               8       Occ  Alpha       5 (A1)    -11.2565
               7       Occ  Alpha       2 (B1)    -11.2566
               8       Occ  Beta        5 (A1)    -11.2565
               7       Occ  Beta        2 (B1)    -11.2566
               94      Vir  Alpha      28 (B1)      0.3370
               109     Vir  Alpha      34 (B1)      0.6448
               94      Vir  Beta       28 (B1)      0.3370
               109     Vir  Beta       34 (B1)      0.6448


 EOMEE transition 4/A1
 Total energy = -2799.79526159 a.u.  Excitation energy = 109.2983 eV.
 R0^2 = 0.0000  R1^2 = 0.0003  R2_CCVV^2 = 0.9977  R2_COVV^2 = 0.0010  Res^2 = 7.15e-01
 Conv-d = no

 Amplitude    Transitions between orbitals
  0.1876       3 (B1) A      3 (B1) B    ->    34 (B1) A     28 (B1) B    
 -0.1876       3 (B1) A      3 (B1) B    ->    28 (B1) B     34 (B1) A    
 -0.1876       3 (B1) B      3 (B1) A    ->    34 (B1) A     28 (B1) B    
  0.1876       3 (B1) B      3 (B1) A    ->    34 (B1) B     28 (B1) A    
 -0.1824       3 (B1) A      3 (B1) B    ->    28 (B1) A     34 (B1) B    
  0.1824       3 (B1) A      3 (B1) B    ->    34 (B1) B     28 (B1) A    
  0.1824       3 (B1) B      3 (B1) A    ->    28 (B1) A     34 (B1) B    
 -0.1824       3 (B1) B      3 (B1) A    ->    28 (B1) B     34 (B1) A    
  0.1700       6 (A1) A      6 (A1) B    ->    34 (B1) A     28 (B1) B    
 -0.1700       6 (A1) A      6 (A1) B    ->    28 (B1) B     34 (B1) A    
 -0.1700       6 (A1) B      6 (A1) A    ->    34 (B1) A     28 (B1) B    
  0.1700       6 (A1) B      6 (A1) A    ->    34 (B1) B     28 (B1) A    
 -0.1653       6 (A1) A      6 (A1) B    ->    28 (B1) A     34 (B1) B    
  0.1653       6 (A1) A      6 (A1) B    ->    34 (B1) B     28 (B1) A    
  0.1653       6 (A1) B      6 (A1) A    ->    28 (B1) A     34 (B1) B    
 -0.1653       6 (A1) B      6 (A1) A    ->    28 (B1) B     34 (B1) A    
 -0.1421       3 (B1) A      3 (B1) B    ->    30 (B1) A     28 (B1) B    
  0.1421       3 (B1) A      3 (B1) B    ->    28 (B1) B     30 (B1) A    
  0.1421       3 (B1) B      3 (B1) A    ->    30 (B1) A     28 (B1) B    
 -0.1421       3 (B1) B      3 (B1) A    ->    30 (B1) B     28 (B1) A    
  0.1407       3 (B1) A      3 (B1) B    ->    28 (B1) A     30 (B1) B    
 -0.1407       3 (B1) A      3 (B1) B    ->    30 (B1) B     28 (B1) A    
 -0.1407       3 (B1) B      3 (B1) A    ->    28 (B1) A     30 (B1) B    
  0.1407       3 (B1) B      3 (B1) A    ->    28 (B1) B     30 (B1) A    
 -0.1335       6 (A1) A      6 (A1) B    ->    30 (B1) A     28 (B1) B    
  0.1335       6 (A1) A      6 (A1) B    ->    28 (B1) B     30 (B1) A    
  0.1335       6 (A1) B      6 (A1) A    ->    30 (B1) A     28 (B1) B    
 -0.1335       6 (A1) B      6 (A1) A    ->    30 (B1) B     28 (B1) A    
  0.1322       6 (A1) A      6 (A1) B    ->    28 (B1) A     30 (B1) B    
 -0.1322       6 (A1) A      6 (A1) B    ->    30 (B1) B     28 (B1) A    
 -0.1322       6 (A1) B      6 (A1) A    ->    28 (B1) A     30 (B1) B    
  0.1322       6 (A1) B      6 (A1) A    ->    28 (B1) B     30 (B1) A    

              Summary of significant orbitals:

               Number  Type             Irrep      Energy
               9       Occ  Alpha       6 (A1)    -11.2544
               10      Occ  Alpha       3 (B1)    -11.2542
               9       Occ  Beta        6 (A1)    -11.2544
               10      Occ  Beta        3 (B1)    -11.2542
               94      Vir  Alpha      28 (B1)      0.3370
               100     Vir  Alpha      30 (B1)      0.4329
               109     Vir  Alpha      34 (B1)      0.6448
               94      Vir  Beta       28 (B1)      0.3370
               100     Vir  Beta       30 (B1)      0.4329
               109     Vir  Beta       34 (B1)      0.6448


 EOMEE transition 5/A1
 Total energy = -2799.85930554 a.u.  Excitation energy = 107.5556 eV.
 R0^2 = 0.0000  R1^2 = 0.0001  R2_CCVV^2 = 0.9976  R2_COVV^2 = 0.0011  Res^2 = 3.64e-01
 Conv-d = no

 Amplitude    Transitions between orbitals
  0.1492       7 (A1) A      7 (A1) B    ->    28 (B1) A     27 (B1) B    
 -0.1492       7 (A1) A      7 (A1) B    ->    27 (B1) B     28 (B1) A    
 -0.1492       7 (A1) B      7 (A1) A    ->    28 (B1) A     27 (B1) B    
  0.1492       7 (A1) B      7 (A1) A    ->    28 (B1) B     27 (B1) A    
 -0.1486       7 (A1) A      7 (A1) B    ->    27 (B1) A     28 (B1) B    
  0.1486       7 (A1) A      7 (A1) B    ->    28 (B1) B     27 (B1) A    
  0.1486       7 (A1) B      7 (A1) A    ->    27 (B1) A     28 (B1) B    
 -0.1486       7 (A1) B      7 (A1) A    ->    27 (B1) B     28 (B1) A    
 -0.1448       5 (A1) A      5 (A1) B    ->    28 (B1) A     26 (B1) B    
  0.1448       5 (A1) A      5 (A1) B    ->    26 (B1) B     28 (B1) A    
  0.1448       5 (A1) B      5 (A1) A    ->    28 (B1) A     26 (B1) B    
 -0.1448       5 (A1) B      5 (A1) A    ->    28 (B1) B     26 (B1) A    
  0.1442       5 (A1) A      5 (A1) B    ->    26 (B1) A     28 (B1) B    
 -0.1442       5 (A1) A      5 (A1) B    ->    28 (B1) B     26 (B1) A    
 -0.1442       5 (A1) B      5 (A1) A    ->    26 (B1) A     28 (B1) B    
  0.1442       5 (A1) B      5 (A1) A    ->    26 (B1) B     28 (B1) A    
 -0.1440       2 (B1) A      2 (B1) B    ->    28 (B1) A     26 (B1) B    
  0.1440       2 (B1) A      2 (B1) B    ->    26 (B1) B     28 (B1) A    
  0.1440       2 (B1) B      2 (B1) A    ->    28 (B1) A     26 (B1) B    
 -0.1440       2 (B1) B      2 (B1) A    ->    28 (B1) B     26 (B1) A    
  0.1434       2 (B1) A      2 (B1) B    ->    26 (B1) A     28 (B1) B    
 -0.1434       2 (B1) A      2 (B1) B    ->    28 (B1) B     26 (B1) A    
 -0.1434       2 (B1) B      2 (B1) A    ->    26 (B1) A     28 (B1) B    
  0.1434       2 (B1) B      2 (B1) A    ->    26 (B1) B     28 (B1) A    
 -0.1207       2 (B1) A      2 (B1) B    ->    42 (A1) A     38 (A1) B    
  0.1207       2 (B1) A      2 (B1) B    ->    38 (A1) B     42 (A1) A    
  0.1207       2 (B1) B      2 (B1) A    ->    42 (A1) A     38 (A1) B    
 -0.1207       2 (B1) B      2 (B1) A    ->    42 (A1) B     38 (A1) A    
  0.1200       2 (B1) A      2 (B1) B    ->    38 (A1) A     42 (A1) B    
 -0.1200       2 (B1) A      2 (B1) B    ->    42 (A1) B     38 (A1) A    
 -0.1200       2 (B1) B      2 (B1) A    ->    38 (A1) A     42 (A1) B    
  0.1200       2 (B1) B      2 (B1) A    ->    38 (A1) B     42 (A1) A    
 -0.1199       5 (A1) A      5 (A1) B    ->    42 (A1) A     38 (A1) B    
  0.1199       5 (A1) A      5 (A1) B    ->    38 (A1) B     42 (A1) A    
  0.1199       5 (A1) B      5 (A1) A    ->    42 (A1) A     38 (A1) B    
 -0.1199       5 (A1) B      5 (A1) A    ->    42 (A1) B     38 (A1) A    
  0.1192       5 (A1) A      5 (A1) B    ->    38 (A1) A     42 (A1) B    
 -0.1192       5 (A1) A      5 (A1) B    ->    42 (A1) B     38 (A1) A    
 -0.1192       5 (A1) B      5 (A1) A    ->    38 (A1) A     42 (A1) B    
  0.1192       5 (A1) B      5 (A1) A    ->    38 (A1) B     42 (A1) A    
  0.1138       2 (B1) A      2 (B1) B    ->    34 (B1) A     28 (B1) B    
 -0.1138       2 (B1) A      2 (B1) B    ->    28 (B1) B     34 (B1) A    
 -0.1138       2 (B1) B      2 (B1) A    ->    34 (B1) A     28 (B1) B    
  0.1138       2 (B1) B      2 (B1) A    ->    34 (B1) B     28 (B1) A    
  0.1137       5 (A1) A      5 (A1) B    ->    34 (B1) A     28 (B1) B    
 -0.1137       5 (A1) A      5 (A1) B    ->    28 (B1) B     34 (B1) A    
 -0.1137       5 (A1) B      5 (A1) A    ->    34 (B1) A     28 (B1) B    
  0.1137       5 (A1) B      5 (A1) A    ->    34 (B1) B     28 (B1) A    
 -0.1106       2 (B1) A      2 (B1) B    ->    28 (B1) A     34 (B1) B    
  0.1106       2 (B1) A      2 (B1) B    ->    34 (B1) B     28 (B1) A    
  0.1106       2 (B1) B      2 (B1) A    ->    28 (B1) A     34 (B1) B    
 -0.1106       2 (B1) B      2 (B1) A    ->    28 (B1) B     34 (B1) A    
 -0.1106       5 (A1) A      5 (A1) B    ->    28 (B1) A     34 (B1) B    
  0.1106       5 (A1) A      5 (A1) B    ->    34 (B1) B     28 (B1) A    
  0.1106       5 (A1) B      5 (A1) A    ->    28 (B1) A     34 (B1) B    
 -0.1106       5 (A1) B      5 (A1) A    ->    28 (B1) B     34 (B1) A    

              Summary of significant orbitals:

               Number  Type             Irrep      Energy
               8       Occ  Alpha       5 (A1)    -11.2565
               11      Occ  Alpha       7 (A1)    -11.2512
               7       Occ  Alpha       2 (B1)    -11.2566
               8       Occ  Beta        5 (A1)    -11.2565
               11      Occ  Beta        7 (A1)    -11.2512
               7       Occ  Beta        2 (B1)    -11.2566
               84      Vir  Alpha      38 (A1)      0.2414
               93      Vir  Alpha      42 (A1)      0.3137
               91      Vir  Alpha      26 (B1)      0.2892
               92      Vir  Alpha      27 (B1)      0.2934
               94      Vir  Alpha      28 (B1)      0.3370
               109     Vir  Alpha      34 (B1)      0.6448
               84      Vir  Beta       38 (A1)      0.2414
               93      Vir  Beta       42 (A1)      0.3137
               91      Vir  Beta       26 (B1)      0.2892
               92      Vir  Beta       27 (B1)      0.2934
               94      Vir  Beta       28 (B1)      0.3370
               109     Vir  Beta       34 (B1)      0.6448


 EOMEE transition 6/A1
 Total energy = -2799.94754626 a.u.  Excitation energy = 105.1545 eV.
 R0^2 = 0.0000  R1^2 = 0.0001  R2_CCVV^2 = 0.9979  R2_COVV^2 = 0.0010  Res^2 = 4.38e-01
 Conv-d = no

 Amplitude    Transitions between orbitals
 -0.2866       7 (A1) A      7 (A1) B    ->    28 (B1) A     27 (B1) B    
  0.2866       7 (A1) A      7 (A1) B    ->    27 (B1) B     28 (B1) A    
  0.2866       7 (A1) B      7 (A1) A    ->    28 (B1) A     27 (B1) B    
 -0.2866       7 (A1) B      7 (A1) A    ->    28 (B1) B     27 (B1) A    
  0.2855       7 (A1) A      7 (A1) B    ->    27 (B1) A     28 (B1) B    
 -0.2855       7 (A1) A      7 (A1) B    ->    28 (B1) B     27 (B1) A    
 -0.2855       7 (A1) B      7 (A1) A    ->    27 (B1) A     28 (B1) B    
  0.2855       7 (A1) B      7 (A1) A    ->    27 (B1) B     28 (B1) A    
  0.1453       7 (A1) A      7 (A1) B    ->    46 (A1) A     42 (A1) B    
 -0.1453       7 (A1) A      7 (A1) B    ->    42 (A1) B     46 (A1) A    
 -0.1453       7 (A1) B      7 (A1) A    ->    46 (A1) A     42 (A1) B    
  0.1453       7 (A1) B      7 (A1) A    ->    46 (A1) B     42 (A1) A    
 -0.1433       7 (A1) A      7 (A1) B    ->    42 (A1) A     46 (A1) B    
  0.1433       7 (A1) A      7 (A1) B    ->    46 (A1) B     42 (A1) A    
  0.1433       7 (A1) B      7 (A1) A    ->    42 (A1) A     46 (A1) B    
 -0.1433       7 (A1) B      7 (A1) A    ->    42 (A1) B     46 (A1) A    
 -0.1370       7 (A1) A      7 (A1) B    ->    34 (B1) A     28 (B1) B    
  0.1370       7 (A1) A      7 (A1) B    ->    28 (B1) B     34 (B1) A    
  0.1370       7 (A1) B      7 (A1) A    ->    34 (B1) A     28 (B1) B    
 -0.1370       7 (A1) B      7 (A1) A    ->    34 (B1) B     28 (B1) A    
  0.1332       7 (A1) A      7 (A1) B    ->    28 (B1) A     34 (B1) B    
 -0.1332       7 (A1) A      7 (A1) B    ->    34 (B1) B     28 (B1) A    
 -0.1332       7 (A1) B      7 (A1) A    ->    28 (B1) A     34 (B1) B    
  0.1332       7 (A1) B      7 (A1) A    ->    28 (B1) B     34 (B1) A    
  0.1226       7 (A1) A      7 (A1) B    ->    28 (B1) A     26 (B1) B    
 -0.1226       7 (A1) A      7 (A1) B    ->    26 (B1) B     28 (B1) A    
 -0.1226       7 (A1) B      7 (A1) A    ->    28 (B1) A     26 (B1) B    
  0.1226       7 (A1) B      7 (A1) A    ->    28 (B1) B     26 (B1) A    
 -0.1221       7 (A1) A      7 (A1) B    ->    26 (B1) A     28 (B1) B    
  0.1221       7 (A1) A      7 (A1) B    ->    28 (B1) B     26 (B1) A    
  0.1221       7 (A1) B      7 (A1) A    ->    26 (B1) A     28 (B1) B    
 -0.1221       7 (A1) B      7 (A1) A    ->    26 (B1) B     28 (B1) A    
 -0.1140       7 (A1) A      7 (A1) B    ->    42 (A1) A     40 (A1) B    
  0.1140       7 (A1) A      7 (A1) B    ->    40 (A1) B     42 (A1) A    
  0.1140       7 (A1) B      7 (A1) A    ->    42 (A1) A     40 (A1) B    
 -0.1140       7 (A1) B      7 (A1) A    ->    42 (A1) B     40 (A1) A    
  0.1135       7 (A1) A      7 (A1) B    ->    40 (A1) A     42 (A1) B    
 -0.1135       7 (A1) A      7 (A1) B    ->    42 (A1) B     40 (A1) A    
 -0.1135       7 (A1) B      7 (A1) A    ->    40 (A1) A     42 (A1) B    
  0.1135       7 (A1) B      7 (A1) A    ->    40 (A1) B     42 (A1) A    
  0.1083       7 (A1) A      7 (A1) B    ->    46 (A1) A     38 (A1) B    
 -0.1083       7 (A1) A      7 (A1) B    ->    38 (A1) B     46 (A1) A    
 -0.1083       7 (A1) B      7 (A1) A    ->    46 (A1) A     38 (A1) B    
  0.1083       7 (A1) B      7 (A1) A    ->    46 (A1) B     38 (A1) A    
 -0.1073       6 (A1) A      6 (A1) B    ->    28 (B1) A     27 (B1) B    
  0.1073       6 (A1) A      6 (A1) B    ->    27 (B1) B     28 (B1) A    
  0.1073       6 (A1) B      6 (A1) A    ->    28 (B1) A     27 (B1) B    
 -0.1073       6 (A1) B      6 (A1) A    ->    28 (B1) B     27 (B1) A    
  0.1069       6 (A1) A      6 (A1) B    ->    27 (B1) A     28 (B1) B    
 -0.1069       6 (A1) A      6 (A1) B    ->    28 (B1) B     27 (B1) A    
 -0.1069       6 (A1) B      6 (A1) A    ->    27 (B1) A     28 (B1) B    
  0.1069       6 (A1) B      6 (A1) A    ->    27 (B1) B     28 (B1) A    
 -0.1062       7 (A1) A      7 (A1) B    ->    38 (A1) A     46 (A1) B    
  0.1062       7 (A1) A      7 (A1) B    ->    46 (A1) B     38 (A1) A    
  0.1062       7 (A1) B      7 (A1) A    ->    38 (A1) A     46 (A1) B    
 -0.1062       7 (A1) B      7 (A1) A    ->    38 (A1) B     46 (A1) A    

              Summary of significant orbitals:

               Number  Type             Irrep      Energy
               9       Occ  Alpha       6 (A1)    -11.2544
               11      Occ  Alpha       7 (A1)    -11.2512
               9       Occ  Beta        6 (A1)    -11.2544
               11      Occ  Beta        7 (A1)    -11.2512
               84      Vir  Alpha      38 (A1)      0.2414
               89      Vir  Alpha      40 (A1)      0.2634
               93      Vir  Alpha      42 (A1)      0.3137
               101     Vir  Alpha      46 (A1)      0.4418
               91      Vir  Alpha      26 (B1)      0.2892
               92      Vir  Alpha      27 (B1)      0.2934
               94      Vir  Alpha      28 (B1)      0.3370
               109     Vir  Alpha      34 (B1)      0.6448
               84      Vir  Beta       38 (A1)      0.2414
               89      Vir  Beta       40 (A1)      0.2634
               93      Vir  Beta       42 (A1)      0.3137
               101     Vir  Beta       46 (A1)      0.4418
               91      Vir  Beta       26 (B1)      0.2892
               92      Vir  Beta       27 (B1)      0.2934
               94      Vir  Beta       28 (B1)      0.3370
               109     Vir  Beta       34 (B1)      0.6448


      CVS-EOM-CCSD/MP2 left amplitudes will be solved using Davidson.
        Amplitudes will be solved using MOM  algorithm.
     Hard-coded thresholds: 
     LinDepThresh=1.00e-15  NormThresh=1.00e-06  ReorthogonThresh=1.00e-02

      Roots     MaxVec    MaxIter   Precond   Conv      Shift    
      6         120       60        1         1.00e-05  6.87e+00  
 ------------------------------------------------------------------------------
      Iter ConvRoots NVecs ResNorm Current eigenvalues (eV)
 ------------------------------------------------------------------------------
      0    0      6     2.95e+00   123.7631   107.3511   100.9964   99.5747   98.2994   98.1899   
      1    0      12    6.18e+03   111.1735   104.9761   100.7280   99.5115   98.2824   98.1825   
      2    0      18    3.43e+01   92.7962   96.0486   97.5867   99.3067   98.4043   98.1513   
      3    0      24    2.04e+02   108.7066   96.0078   96.9731   99.7264   98.5497   98.2426   
      4    0      30    1.05e+00   102.6225   99.2634   98.8445   99.4037   97.9238   98.2213   
      5    0      36    1.57e+01   103.1595   99.1482   98.7930   99.3580   97.9055   98.1809   
      6    0      42    4.14e+00   103.4468   98.8852   99.5259   99.3870   97.9508   98.4544   
      7    0      48    8.85e+00   102.6884   99.3397   98.9992   99.4247   97.9586   98.5145   
      8    0      54    1.05e+01   108.8206   98.7272   99.2784   98.2429   98.9978   97.9035   
      9    0      60    2.27e+00   107.0507   97.3506   95.8500   100.8328   97.2689   98.0464   
      10   0      66    4.40e+01   104.5338   100.4935   100.1186   98.6880   99.3406   98.3096   
      11   0      72    3.04e-01   110.2112   99.8771   98.2627   97.6158   99.0074   98.5184   
      12   0      78    4.35e+01   109.3611   100.8600   102.8252   98.1731   97.5682   98.6558   
      13   0      84    6.54e+00   99.0246   98.5364   99.7516   97.7106   97.8387   98.2022   
      14   0      90    5.32e-01   103.0736   98.1634   98.6704   97.6188   98.3805   99.4653   
      15   0      96    4.70e+00   103.0033   102.1743   98.1037   97.5671   98.6397   100.5323   
      16   0      102   1.40e+00   102.4040   99.5097   97.1704   100.3020   98.0261   99.2402   
      17   0      108   2.43e+01   102.4350   99.5216   98.6647   98.2350   99.9325   99.1285   
      18   0      114   5.06e-01   104.2582   99.0920   97.9252   100.9519   97.7231   96.9542   
      19   0      120   3.64e+00   111.3262   102.6064   100.8429   97.5182   97.2945   100.4721   
      20   0      12    9.33e-01   110.6267   101.6474   99.8825   97.3700   97.1976   100.3859   
      21   0      18    4.29e+00   109.8216   104.3320   99.4341   97.8545   97.5492   101.2150   
      22   0      24    2.87e-01   111.2958   102.7091   101.0344   97.6359   97.3681   100.5416   
      23   0      30    3.45e+01   111.3333   102.1731   103.3546   99.2503   96.6266   97.3013   
      24   0      36    1.45e+00   114.7644   105.3315   103.6517   100.5555   97.6150   96.8585   
      25   0      42    2.91e+00   111.2138   103.3213   101.3951   97.5919   97.3072   100.6068   
      26   0      48    4.13e+00   112.4364   106.7138   104.3478   99.5617   97.1991   97.4292   
      27   0      54    1.60e+00   113.7508   105.0190   104.0063   101.1368   97.2471   96.9454   
      28   0      60    5.91e+00   113.0897   108.0576   103.4887   103.0340   99.6127   97.6481   
      29   0      66    3.92e+00   112.4885   106.9364   100.7697   101.1757   98.8799   97.2854   
      30   0      72    3.53e+00   113.2258   104.5040   98.5447   100.5336   97.2482   96.9827   
      31   0      78    2.16e+00   113.6593   109.5878   104.0009   102.7323   100.4488   99.2635   
      32   0      84    2.31e+00   112.2092   108.4011   102.6077   100.0833   96.3476   97.5787   
      33   0      90    1.68e+00   113.4771   111.2821   105.4069   101.4157   99.6525   97.8044   
      34   0      96    1.14e+01   114.9575   112.5069   107.9942   104.5077   103.3514   100.0217   
      35   0      102   6.13e-01   113.8883   110.1098   104.3865   101.2464   99.2812   101.6779   
      36   0      108   7.75e-01   114.2554   111.9575   106.7814   102.4803   100.5470   96.5790   
      37   0      114   9.36e+00   114.8028   113.1333   110.6585   106.1364   105.1022   103.1124   
      38   0      120   3.13e+00   114.5828   110.7556   105.1735   102.5049   103.4973   99.7015   
      39   0      12    3.89e+00   113.7129   109.5725   102.9672   101.3533   102.6701   99.0619   
      40   0      18    4.50e+00   115.5140   109.1356   96.2062   102.0350   104.2123   99.4429   
      41   0      24    4.61e+00   115.7856   112.1682   106.6723   103.2417   104.5727   100.0880   
      42   0      30    1.95e+00   114.1300   110.2899   104.6883   102.4059   103.1446   99.5773   
      43   0      36    8.52e+00   114.0385   110.0102   103.6487   100.4895   102.6832   99.2908   
      44   0      42    2.46e+00   115.0672   111.4926   108.0557   103.6275   102.3573   101.7168   
      45   0      48    8.10e+00   115.2270   111.1667   105.3875   102.8922   95.1059   104.6779   
      46   0      54    5.76e+00   118.0275   112.4351   110.3134   104.7308   102.2715   103.2360   
      47   0      60    4.92e+00   113.4916   106.3182   108.9390   110.6706   103.7430   101.3837   
      48   0      66    3.57e+00   120.1760   114.4834   111.4970   109.3000   102.1379   104.2460   
      49   0      72    1.08e+00   114.0029   110.9667   105.4626   102.6960   105.0671   99.1888   
      50   0      78    8.62e+00   116.6638   113.2642   112.1382   108.9302   104.7740   102.2557   
      51   0      84    7.96e+00   114.9581   116.0518   109.9804   108.7080   107.3311   102.9544   
      52   0      90    1.45e+00   114.7047   112.1419   98.0325   107.7177   103.4450   100.9129   
      53   0      96    4.57e+00   113.9343   111.4227   95.8123   105.9296   102.5466   104.4811   
      54   0      102   4.99e+00   114.9295   111.6368   108.0827   102.9514   102.2438   99.4950   
      55   0      108   8.23e+00   116.2639   113.1927   106.9496   108.4058   105.6312   101.0012   
      56   0      114   1.66e+00   114.7124   112.8413   106.8065   108.0669   100.3444   99.7226   
      57   0      120   9.53e+00   118.4053   113.6757   110.1362   106.2424   102.8255   105.8466   
      58   0      12    3.56e+00   114.3128   111.8688   97.9772   107.3461   102.3326   104.2258   
      59   0      18    9.47e+00   86.9746   113.5290   107.1791   115.9569   96.0139   106.8607   

biorthogonolize_left_to_right(): number of left and right states does not match
biorthogonolize_left_to_right(): small overlap: S=-0.0005  for state5
        Solving for CVS-EOMEE-CCSD B1 singlet states.

        CVS-EOMEE-CCSD/MP2 right amplitudes will be solved using Davidson.
        Amplitudes will be solved using shifted  algorithm.
     Hard-coded thresholds: 
     LinDepThresh=1.00e-15  NormThresh=1.00e-06  ReorthogonThresh=1.00e-02

      Roots     MaxVec    MaxIter   Precond   Conv      Shift    
      6         120       60        1         1.00e-05  6.87e+00  
 ------------------------------------------------------------------------------
      Iter ConvRoots NVecs ResNorm Current eigenvalues (eV)
 ------------------------------------------------------------------------------
      0    0      6     1.94e+00   303.5720   303.8469   304.1267   304.2622   304.4125   304.5390   
      1    0      12    1.10e+02   300.7654   301.0515   301.3013   301.4406   301.5798   301.8918   
      2    0      18    7.20e-01   289.6896   289.8746   290.1405   290.2527   290.3093   290.5284   
      3    0      24    1.17e-01   288.9958   289.1966   289.5151   289.6225   289.6837   289.8844   
      4    0      30    2.28e-02   288.9089   289.1253   289.4666   289.5756   289.6416   289.8407   
      5    0      36    1.77e-01   288.6083   288.8954   289.3689   289.4835   289.5659   289.7674   
      6    0      42    1.30e-02   288.1810   288.4647   289.1762   289.3014   289.4198   289.5855   
      7    0      48    9.31e-02   288.0702   288.3179   289.0685   289.1849   289.2942   289.4010   
      8    0      54    1.69e-03   288.0318   288.2543   289.0166   289.1408   289.2533   289.3196   
      9    0      60    1.30e-02   288.0231   288.2249   289.0118   289.1352   289.2451   289.3045   
      10   0      66    5.16e-03   288.0177   288.1805   289.0073   289.1241   289.2236   289.2700   
      11   0      72    1.59e-02   288.0095   288.1332   288.9957   289.1043   289.1794   289.2156   
      12   0      78    1.88e-03   288.0077   288.1225   288.9893   289.0929   289.1506   289.1957   
      13   0      84    9.79e-04   288.0075   288.1168   288.9867   289.0866   289.1302   289.1850   
      14   0      90    2.11e-03   288.0065   288.1095   288.9844   289.0803   289.1058   289.1804   
      15   0      96    5.39e-04   288.0060   288.1037   288.9837   289.0635   289.0844   289.1776   
Found complex roots...
      16   0      102   1.08e-03   288.0060   288.1027   288.9823   289.0471   289.0793   289.1740   
      17   1      108   1.58e-04   288.0060*  288.1020   288.9825   289.0358   289.0781   289.1737   
      18   1      113   4.70e-04   288.0059*  288.1015   288.9823   289.0300   289.0771   289.1735   
Found complex roots...
      19   2      118   2.50e-04   288.0059*  288.1011   288.9817*  289.0240   289.0754   289.1719   
      20   2      120   2.02e-04   288.0059*  288.1006   288.9817*  289.0184   289.0749   289.1719   
      21   3      10    3.77e-05   288.0059*  288.1008*  288.9817*  289.0161   289.0752   289.1721   
      22   1      13    1.47e-04   288.0059*  288.1008   288.9817   289.0125   289.0747   289.1717   
      23   3      18    7.92e-05   288.0059*  288.1007*  288.9817*  289.0091   289.0742   289.1713   
      24   3      21    1.56e-04   288.0059*  288.1007*  288.9817*  289.0070   289.0743   289.1713   
      25   3      24    2.35e-04   288.0059*  288.1005*  288.9817*  289.0023   289.0739   289.1711   
      26   3      27    1.17e-04   288.0059*  288.1006*  288.9817*  288.9973   289.0739   289.1710   
      27   2      30    2.02e-04   288.0059*  288.1006*  288.9817   288.9947   289.0737   289.1708   
      28   4      34    2.90e-05   288.0059*  288.1006*  288.9816*  288.9919   289.0733*  289.1705   
      29   2      36    2.32e-04   288.0059*  288.1005*  288.9815   288.9886   289.0734   289.1703   
      30   4      40    2.50e-05   288.0059*  288.1006*  288.9813*  288.9875   289.0732*  289.1701   
      31   2      42    1.07e-04   288.0059*  288.1005*  288.9812   288.9854   289.0732   289.1698   
      32   3      46    3.57e-05   288.0059*  288.1005*  288.9810   288.9845   289.0732*  289.1699   
      33   2      49    1.06e-03   288.0059*  288.1006*  288.9806   288.9830   289.0726   289.1688   
      34   2      53    7.92e+00   221.5832   288.0059*  288.1006*  288.9810   288.9843   289.0731   
      35   3      57    4.57e+00   225.3897   288.0059*  288.1005*  288.9808   288.9838   289.0731*  
      36   3      60    2.48e-05   288.0059*  288.1005*  288.9806   288.9834   289.0731*  289.1693   
      37   2      63    2.26e-04   288.0059*  288.1006*  288.9803   288.9829   289.0729   289.1695   
      38   2      67    5.74e+00   219.8709   288.0059*  288.1006*  288.9807   288.9835   289.0731   
      39   2      71    9.05e+00   211.6668   255.3820   288.0059*  288.1005*  288.9805   288.9833   
      40   3      75    1.37e-05   288.0059*  288.1006*  288.9801   288.9828   289.0731*  289.1691   
      41   2      78    2.01e+00   281.1221   288.0059*  288.1005*  288.9802   288.9831   289.0731   
      42   2      82    4.83e+00   89.4753   288.0059*  288.1006*  288.9800   288.9857   289.0728   
      43   2      86    1.01e+01   186.1973   259.0107   288.0059*  288.1005*  288.9802   288.9831   
      44   3      90    2.60e+00   269.6076   288.0059*  288.1006*  288.9801   288.9827   289.0730*  
      45   3      93    1.08e+00   283.6181   288.0059*  288.1005*  288.9805   288.9826   289.0730*  
      46   2      96    5.48e+00   95.1610   287.7245   288.0059*  288.1006*  288.9804   288.9826   
      47   3      100   5.17e+00   113.7377   288.0059*  288.1006*  288.9801   288.9828   289.0730*  
      48   3      103   5.16e-05   288.0059*  288.1006*  288.9798   288.9827   289.0730*  289.1686   
      49   2      106   4.14e+00   262.2297   288.0060*  288.1006*  288.7909   288.9811   288.9820   
Rerun orthogonalization...
      50   3      110   8.47e+00   186.6688   274.2524   288.0059*  288.1005*  288.9801   288.9828*  
Found complex roots...
      51   4      113   2.33e-05   288.0059*  288.1006*  288.9797   288.9827*  289.0730*  289.1678   
Found complex roots...
      52   2      115   2.23e+00   283.5585   288.0060*  288.1006*  288.9812   288.9812   289.0730   
      53   2      118   3.76e+00   103.7485   288.0059*  288.1006*  288.2661   288.9801   288.9818   
      54   5      120   6.42e+00   180.7798   288.0059*  288.1005*  288.9800*  288.9825*  289.0731*  
      55   5      7     3.02e+00   288.0059*  288.1005*  288.9800*  288.9824*  289.0730*  330.1097   
      56   5      8     1.94e-02   288.0059*  288.1005*  288.9800*  288.9824*  289.0730*  326.3742   
      57   5      9     1.92e-02   288.0059*  288.1005*  288.9800*  288.9824*  289.0730*  325.4512   
      58   5      10    6.97e-03   288.0059*  288.1005*  288.9800*  288.9824*  289.0730*  325.2758   
      59   5      11    1.50e-02   288.0059*  288.1005*  288.9800*  288.9824*  289.0730*  324.5855   

 EOMEE transition 1/B1
 Total energy = -2793.22787801 a.u.  Excitation energy = 288.0059 eV.
 R0^2 = 0.0000  R1^2 = 0.1674  R2_CCVV^2 = 0.4835  R2_COVV^2 = 0.1745  Res^2 = 1.91e-06
 Conv-d = yes

 Amplitude    Transitions between orbitals
 -0.0908       5 (A1) A      6 (A1) A    ->    20 (A1) A     12 (B1) A    
  0.0908       5 (A1) A      6 (A1) A    ->    12 (B1) A     20 (A1) A    
 -0.0908       5 (A1) B      6 (A1) B    ->    20 (A1) B     12 (B1) B    
  0.0908       5 (A1) B      6 (A1) B    ->    12 (B1) B     20 (A1) B    

              Summary of significant orbitals:

               Number  Type             Irrep      Energy
               8       Occ  Alpha       5 (A1)    -11.2565
               9       Occ  Alpha       6 (A1)    -11.2544
               8       Occ  Beta        5 (A1)    -11.2565
               9       Occ  Beta        6 (A1)    -11.2544
               39      Vir  Alpha      20 (A1)      0.0132
               40      Vir  Alpha      12 (B1)      0.0201
               39      Vir  Beta       20 (A1)      0.0132
               40      Vir  Beta       12 (B1)      0.0201


 EOMEE transition 2/B1
 Total energy = -2793.22440152 a.u.  Excitation energy = 288.1005 eV.
 R0^2 = 0.0000  R1^2 = 0.8123  R2_CCVV^2 = 0.0017  R2_COVV^2 = 0.0930  Res^2 = 4.80e-07
 Conv-d = yes

 Amplitude    Transitions between orbitals
  0.3232       3 (B1) A                  ->    20 (A1) A                  
  0.3232       3 (B1) B                  ->    20 (A1) B                  
 -0.2220       3 (B1) A                  ->    25 (A1) A                  
 -0.2220       3 (B1) B                  ->    25 (A1) B                  
 -0.1893       3 (B1) A                  ->    29 (A1) A                  
 -0.1893       3 (B1) B                  ->    29 (A1) B                  
  0.1829       6 (A1) A                  ->    12 (B1) A                  
  0.1829       6 (A1) B                  ->    12 (B1) B                  
 -0.1788       6 (A1) A                  ->    18 (B1) A                  
 -0.1788       6 (A1) B                  ->    18 (B1) B                  
  0.1572       3 (B1) A                  ->    28 (A1) A                  
  0.1572       3 (B1) B                  ->    28 (A1) B                  
 -0.1196       3 (B1) A                  ->    21 (A1) A                  
 -0.1196       3 (B1) B                  ->    21 (A1) B                  
 -0.1014       3 (B1) A                  ->    36 (A1) A                  
 -0.1014       3 (B1) B                  ->    36 (A1) B                  
 -0.1002       6 (A1) A                  ->    22 (B1) A                  
 -0.1002       6 (A1) B                  ->    22 (B1) B                  

              Summary of significant orbitals:

               Number  Type             Irrep      Energy
               9       Occ  Alpha       6 (A1)    -11.2544
               10      Occ  Alpha       3 (B1)    -11.2542
               9       Occ  Beta        6 (A1)    -11.2544
               10      Occ  Beta        3 (B1)    -11.2542
               39      Vir  Alpha      20 (A1)      0.0132
               41      Vir  Alpha      21 (A1)      0.0204
               52      Vir  Alpha      25 (A1)      0.0587
               60      Vir  Alpha      28 (A1)      0.0816
               61      Vir  Alpha      29 (A1)      0.0865
               78      Vir  Alpha      36 (A1)      0.2140
               40      Vir  Alpha      12 (B1)      0.0201
               62      Vir  Alpha      18 (B1)      0.0908
               79      Vir  Alpha      22 (B1)      0.2228
               39      Vir  Beta       20 (A1)      0.0132
               41      Vir  Beta       21 (A1)      0.0204
               52      Vir  Beta       25 (A1)      0.0587
               60      Vir  Beta       28 (A1)      0.0816
               61      Vir  Beta       29 (A1)      0.0865
               78      Vir  Beta       36 (A1)      0.2140
               40      Vir  Beta       12 (B1)      0.0201
               62      Vir  Beta       18 (B1)      0.0908
               79      Vir  Beta       22 (B1)      0.2228


 EOMEE transition 3/B1
 Total energy = -2793.19208168 a.u.  Excitation energy = 288.9800 eV.
 R0^2 = 0.0000  R1^2 = 0.8112  R2_CCVV^2 = 0.0017  R2_COVV^2 = 0.0936  Res^2 = 7.11e-06
 Conv-d = yes

 Amplitude    Transitions between orbitals
 -0.2670       2 (B1) A                  ->    20 (A1) A                  
 -0.2670       2 (B1) B                  ->    20 (A1) B                  
 -0.2322       2 (B1) A                  ->    28 (A1) A                  
 -0.2322       2 (B1) B                  ->    28 (A1) B                  
 -0.1785       5 (A1) A                  ->    12 (B1) A                  
 -0.1785       5 (A1) B                  ->    12 (B1) B                  
  0.1686       2 (B1) A                  ->    25 (A1) A                  
  0.1686       2 (B1) B                  ->    25 (A1) B                  
  0.1652       2 (B1) A                  ->    31 (A1) A                  
  0.1652       2 (B1) B                  ->    31 (A1) B                  
  0.1595       2 (B1) A                  ->    22 (A1) A                  
  0.1595       2 (B1) B                  ->    22 (A1) B                  
  0.1464       2 (B1) A                  ->    36 (A1) A                  
  0.1464       2 (B1) B                  ->    36 (A1) B                  
 -0.1396       2 (B1) A                  ->    30 (A1) A                  
 -0.1396       2 (B1) B                  ->    30 (A1) B                  
  0.1291       5 (A1) A                  ->    18 (B1) A                  
  0.1291       5 (A1) B                  ->    18 (B1) B                  
 -0.1042       2 (B1) A                  ->    24 (A1) A                  
 -0.1042       2 (B1) B                  ->    24 (A1) B                  
 -0.1028       5 (A1) A                  ->    15 (B1) A                  
 -0.1028       5 (A1) B                  ->    15 (B1) B                  
 -0.1027       5 (A1) A                  ->    19 (B1) A                  
 -0.1027       5 (A1) B                  ->    19 (B1) B                  

              Summary of significant orbitals:

               Number  Type             Irrep      Energy
               8       Occ  Alpha       5 (A1)    -11.2565
               7       Occ  Alpha       2 (B1)    -11.2566
               8       Occ  Beta        5 (A1)    -11.2565
               7       Occ  Beta        2 (B1)    -11.2566
               39      Vir  Alpha      20 (A1)      0.0132
               44      Vir  Alpha      22 (A1)      0.0297
               49      Vir  Alpha      24 (A1)      0.0478
               52      Vir  Alpha      25 (A1)      0.0587
               60      Vir  Alpha      28 (A1)      0.0816
               65      Vir  Alpha      30 (A1)      0.1014
               67      Vir  Alpha      31 (A1)      0.1233
               78      Vir  Alpha      36 (A1)      0.2140
               40      Vir  Alpha      12 (B1)      0.0201
               53      Vir  Alpha      15 (B1)      0.0630
               62      Vir  Alpha      18 (B1)      0.0908
               66      Vir  Alpha      19 (B1)      0.1191
               39      Vir  Beta       20 (A1)      0.0132
               44      Vir  Beta       22 (A1)      0.0297
               49      Vir  Beta       24 (A1)      0.0478
               52      Vir  Beta       25 (A1)      0.0587
               60      Vir  Beta       28 (A1)      0.0816
               65      Vir  Beta       30 (A1)      0.1014
               67      Vir  Beta       31 (A1)      0.1233
               78      Vir  Beta       36 (A1)      0.2140
               40      Vir  Beta       12 (B1)      0.0201
               53      Vir  Beta       15 (B1)      0.0630
               62      Vir  Beta       18 (B1)      0.0908
               66      Vir  Beta       19 (B1)      0.1191


 EOMEE transition 4/B1
 Total energy = -2793.19199278 a.u.  Excitation energy = 288.9824 eV.
 R0^2 = 0.0000  R1^2 = 0.7999  R2_CCVV^2 = 0.0017  R2_COVV^2 = 0.0992  Res^2 = 3.78e-06
 Conv-d = yes

 Amplitude    Transitions between orbitals
 -0.2449       7 (A1) A                  ->    12 (B1) A                  
 -0.2449       7 (A1) B                  ->    12 (B1) B                  
  0.2194       2 (B1) A                  ->    20 (A1) A                  
  0.2194       2 (B1) B                  ->    20 (A1) B                  
 -0.1753       2 (B1) A                  ->    25 (A1) A                  
 -0.1753       2 (B1) B                  ->    25 (A1) B                  
[...]
 Oscillator strength (a.u.): -0.000006
 Norm of one-particle transition density matrix:
   A->B: 0.017811;   B->A: 1.195629
   ||gamma^AB||*||gamma^BA||: 0.021295

 ------------------------------------------------------------------------------
 State A: ccsd: 0/A1
 State B: cvs_eomee_ccsd/rhfref/singlets: 5/A1
 Transition dipole moment (a.u.):
   A->B: 0.000076 (X 0.000000, Y 0.000000, Z 0.000076)
   B->A: 0.318210 (X 0.000000, Y 0.000000, Z -0.318210)
 Oscillator strength (a.u.): -0.000063
 Norm of one-particle transition density matrix:
   A->B: 0.010200;   B->A: 9.968726
   ||gamma^AB||*||gamma^BA||: 0.101679

 ------------------------------------------------------------------------------
 State A: ccsd: 0/A1
 State B: cvs_eomee_ccsd/rhfref/singlets: 6/A1
 Transition dipole moment (a.u.):
   A->B: 0.000019 (X 0.000000, Y 0.000000, Z -0.000019)
   B->A: 0.570082 (X 0.000000, Y 0.000000, Z -0.570082)
 Oscillator strength (a.u.): 0.000028
 Norm of one-particle transition density matrix:
   A->B: 0.007722;   B->A: 76.622563
   ||gamma^AB||*||gamma^BA||: 0.591663

 ------------------------------------------------------------------------------
 State A: ccsd: 0/A1
 State B: cvs_eomee_ccsd/rhfref/singlets: 1/B1
 Transition dipole moment (a.u.):
   A->B: 0.001958 (X -0.001958, Y 0.000000, Z 0.000000)
   B->A: 0.581090 (X -0.581090, Y 0.000000, Z 0.000000)
 Oscillator strength (a.u.): 0.008027
 Norm of one-particle transition density matrix:
   A->B: 0.410687;   B->A: 22.608375
   ||gamma^AB||*||gamma^BA||: 9.284972

 ------------------------------------------------------------------------------
 State A: ccsd: 0/A1
 State B: cvs_eomee_ccsd/rhfref/singlets: 2/B1
 Transition dipole moment (a.u.):
   A->B: 0.032584 (X 0.032584, Y 0.000000, Z 0.000000)
   B->A: 12.412545 (X 12.412545, Y 0.000000, Z 0.000000)
 Oscillator strength (a.u.): 2.854727
 Norm of one-particle transition density matrix:
   A->B: 0.902130;   B->A: 275.451009
   ||gamma^AB||*||gamma^BA||: 248.492572

 ------------------------------------------------------------------------------
 State A: ccsd: 0/A1
 State B: cvs_eomee_ccsd/rhfref/singlets: 3/B1
 Transition dipole moment (a.u.):
   A->B: 0.052934 (X 0.052934, Y 0.000000, Z 0.000000)
   B->A: 1.109249 (X 1.109249, Y 0.000000, Z 0.000000)
 Oscillator strength (a.u.): 0.415710
 Norm of one-particle transition density matrix:
   A->B: 0.899648;   B->A: 459.592976
   ||gamma^AB||*||gamma^BA||: 413.471744

 ------------------------------------------------------------------------------
 State A: ccsd: 0/A1
 State B: cvs_eomee_ccsd/rhfref/singlets: 4/B1
 Transition dipole moment (a.u.):
   A->B: 0.018805 (X 0.018805, Y 0.000000, Z 0.000000)
   B->A: 0.018813 (X 0.018813, Y 0.000000, Z 0.000000)
 Oscillator strength (a.u.): 0.002505
 Norm of one-particle transition density matrix:
   A->B: 0.893465;   B->A: 1.079610
   ||gamma^AB||*||gamma^BA||: 0.964593

 ------------------------------------------------------------------------------
 State A: ccsd: 0/A1
 State B: cvs_eomee_ccsd/rhfref/singlets: 5/B1
 Transition dipole moment (a.u.):
   A->B: 0.016412 (X 0.016412, Y 0.000000, Z 0.000000)
   B->A: 0.015284 (X 0.015284, Y 0.000000, Z 0.000000)
 Oscillator strength (a.u.): 0.001776
 Norm of one-particle transition density matrix:
   A->B: 0.895848;   B->A: 0.882220
   ||gamma^AB||*||gamma^BA||: 0.790335

 ------------------------------------------------------------------------------
 State A: ccsd: 0/A1
 State B: cvs_eomee_ccsd/rhfref/singlets: 6/B1
 Transition dipole moment (a.u.):
   A->B: 0.016635 (X -0.016635, Y 0.000000, Z 0.000000)
   B->A: 0.016714 (X -0.016714, Y 0.000000, Z 0.000000)
 Oscillator strength (a.u.): 0.002211
 Norm of one-particle transition density matrix:
   A->B: 0.897475;   B->A: 0.986846
   ||gamma^AB||*||gamma^BA||: 0.885670

 ------------------------------------------------------------------------------
 State A: ccsd: 0/A1
 State B: cvs_eomee_ccsd/rhfref/singlets: 1/B2
 Transition dipole moment (a.u.):
   A->B: 0.043477 (X 0.000000, Y -0.043477, Z 0.000000)
   B->A: 0.044008 (X 0.000000, Y -0.044008, Z 0.000000)
 Oscillator strength (a.u.): 0.013405
 Norm of one-particle transition density matrix:
   A->B: 0.889589;   B->A: 0.892947
   ||gamma^AB||*||gamma^BA||: 0.794355

 ------------------------------------------------------------------------------
 State A: ccsd: 0/A1
 State B: cvs_eomee_ccsd/rhfref/singlets: 2/B2
 Transition dipole moment (a.u.):
   A->B: 0.134150 (X 0.000000, Y -0.134150, Z 0.000000)
   B->A: 0.136535 (X 0.000000, Y -0.136535, Z 0.000000)
 Oscillator strength (a.u.): 0.128328
 Norm of one-particle transition density matrix:
   A->B: 0.890314;   B->A: 0.893373
   ||gamma^AB||*||gamma^BA||: 0.795382

 ------------------------------------------------------------------------------
 State A: ccsd: 0/A1
 State B: cvs_eomee_ccsd/rhfref/singlets: 3/B2
 Transition dipole moment (a.u.):
   A->B: 0.124826 (X 0.000000, Y 0.124826, Z 0.000000)
   B->A: 0.127262 (X 0.000000, Y 0.127262, Z 0.000000)
 Oscillator strength (a.u.): 0.111322
 Norm of one-particle transition density matrix:
   A->B: 0.889135;   B->A: 0.892542
   ||gamma^AB||*||gamma^BA||: 0.793590

 ------------------------------------------------------------------------------
 State A: ccsd: 0/A1
 State B: cvs_eomee_ccsd/rhfref/singlets: 4/B2
 Transition dipole moment (a.u.):
   A->B: 0.086455 (X 0.000000, Y -0.086455, Z 0.000000)
   B->A: 0.087871 (X 0.000000, Y -0.087871, Z 0.000000)
 Oscillator strength (a.u.): 0.053432
 Norm of one-particle transition density matrix:
   A->B: 0.886871;   B->A: 0.890157
   ||gamma^AB||*||gamma^BA||: 0.789455

 ------------------------------------------------------------------------------
 State A: ccsd: 0/A1
 State B: cvs_eomee_ccsd/rhfref/singlets: 5/B2
 Transition dipole moment (a.u.):
   A->B: 0.003132 (X 0.000000, Y -0.003132, Z 0.000000)
   B->A: 0.002782 (X 0.000000, Y -0.002782, Z 0.000000)
 Oscillator strength (a.u.): 0.000061
 Norm of one-particle transition density matrix:
   A->B: 0.867341;   B->A: 0.855916
   ||gamma^AB||*||gamma^BA||: 0.742371

 ------------------------------------------------------------------------------
 State A: ccsd: 0/A1
 State B: cvs_eomee_ccsd/rhfref/singlets: 6/B2
 Transition dipole moment (a.u.):
   A->B: 0.002864 (X 0.000000, Y -0.002864, Z 0.000000)
   B->A: 0.002370 (X 0.000000, Y -0.002370, Z 0.000000)
 Oscillator strength (a.u.): 0.000048
 Norm of one-particle transition density matrix:
   A->B: 0.867747;   B->A: 0.856309
   ||gamma^AB||*||gamma^BA||: 0.743060


 All requested transition properties have been computed

 Transition Properties:   CPU 179.42 s  wall 37.90 s

 Total ccman2 time:   CPU 268510.37 s  wall 38882.24 s


 --------------------------------------------------------------
             Orbital Energies (a.u.) and Symmetries
 --------------------------------------------------------------

 Alpha MOs, Restricted
 -- Occupied --                  
-490.03  -65.16  -58.52  -58.52  -58.52  -11.30  -11.26  -11.26
  1 A1    2 A1    3 A1    1 B2    1 B1    4 A1    2 B1    5 A1                 
-11.254 -11.254 -11.251  -9.841  -7.454  -7.445  -7.445  -3.193
  6 A1    3 B1    7 A1    8 A1    9 A1    4 B1    2 B2   10 A1                 
 -3.189  -3.189  -3.179  -3.179  -1.180  -1.076  -1.036  -0.977
  3 B2    5 B1   11 A1    1 A2   12 A1   13 A1    6 B1   14 A1                 
 -0.849  -0.820  -0.714  -0.648  -0.647  -0.608  -0.578  -0.535
  7 B1   15 A1   16 A1    8 B1   17 A1    9 B1   18 A1    4 B2                 
 -0.518  -0.496  -0.440  -0.417  -0.354  -0.335
 10 B1   19 A1    5 B2   11 B1    2 A2    6 B2                                 
 -- Virtual --                   
  0.013   0.020   0.020   0.026   0.029   0.030   0.037   0.040
 20 A1   12 B1   21 A1    7 B2   13 B1   22 A1   23 A1    8 B2                 
  0.043   0.047   0.048   0.054   0.055   0.059   0.063   0.065
  3 A2   14 B1   24 A1    9 B2    4 A2   25 A1   15 B1   26 A1                 
  0.067   0.067   0.069   0.069   0.076   0.082   0.087   0.091
 16 B1   10 B2   27 A1   11 B2   17 B1   28 A1   29 A1   18 B1                 
  0.100   0.101   0.101   0.119   0.123   0.140   0.156   0.165
 12 B2    5 A2   30 A1   19 B1   31 A1   32 A1   13 B2   20 B1                 
  0.174   0.177   0.179   0.196   0.198   0.203   0.207   0.214
 14 B2   33 A1    6 A2   34 A1   21 B1   35 A1   15 B2   36 A1                 
  0.223   0.225   0.229   0.229   0.231   0.241   0.245   0.247
 22 B1   16 B2   37 A1   23 B1    7 A2   38 A1   17 B2   24 B1                 
  0.252   0.254   0.263   0.278   0.289   0.293   0.314   0.337
 39 A1   25 B1   40 A1   41 A1   26 B1   27 B1   42 A1   28 B1                 
  0.342   0.353   0.377   0.413   0.416   0.433   0.442   0.487
 43 A1   18 B2   44 A1   45 A1   29 B1   30 B1   46 A1   47 A1                 
  0.494   0.511   0.512   0.606   0.615   0.619   0.645   0.647
 31 B1   32 B1   48 A1   49 A1   33 B1   19 B2   34 B1   50 A1                 
  0.716   0.729   0.736   0.737   0.741   0.747   0.766   0.774
 51 A1   35 B1   20 B2   36 B1   52 A1   21 B2    8 A2   53 A1                 
  0.787   0.787   0.805   0.824   0.829   0.866   0.888   0.897
  9 A2   37 B1   22 B2   54 A1   10 A2   23 B2   55 A1   56 A1                 
  0.924   0.925   0.935   0.939   0.960   0.985   1.012   1.031
 38 B1   24 B2   57 A1   39 B1   58 A1   59 A1   40 B1   60 A1                 
  1.059   1.069   1.097   1.098   1.112   1.126   1.177   1.203
 41 B1   61 A1   42 B1   62 A1   63 A1   43 B1   44 B1   25 B2                 
  1.203   1.231   1.286   1.293   1.308   1.345   1.374   1.472
 64 A1   11 A2   65 A1   45 B1   12 A2   26 B2   13 A2   66 A1                 
  1.526   1.614   1.725   1.776   1.785   1.817   1.823   1.831
 27 B2   67 A1   46 B1   68 A1   47 B1   69 A1   28 B2   14 A2                 
  1.881   1.905   1.907   1.947   1.990   2.006   2.042   2.102
 29 B2   70 A1   48 B1   71 A1   49 B1   30 B2   15 A2   50 B1                 
  2.147   2.217   2.218   2.219   2.235   2.248   2.272   2.320
 72 A1   51 B1   31 B2   16 A2   52 B1   73 A1   32 B2   74 A1                 
  2.345   2.352   2.366   2.375   2.443   2.594   2.614   2.645
 75 A1   53 B1   17 A2   33 B2   54 B1   34 B2   76 A1   18 A2                 
  2.676   2.742   2.796   2.796   2.849   2.929   2.972   2.991
 55 B1   77 A1   78 A1   56 B1   57 B1   79 A1   80 A1   81 A1                 
  3.009   3.022   3.031   3.039   3.069   3.161   3.186   3.193
 58 B1   82 A1   83 A1   59 B1   35 B2   84 A1   36 B2   60 B1                 
  3.193   3.280   3.286   3.319   3.472   3.530   3.563   3.756
 19 A2   37 B2   20 A2   61 B1   38 B2   85 A1   62 B1   63 B1                 
  3.780   3.899   3.921   4.018   4.139   4.383   4.438   4.501
 86 A1   64 B1   87 A1   88 A1   89 A1   65 B1   90 A1   91 A1                 
  4.515   4.558   4.609   4.638   4.789   4.960   5.114   5.261
 66 B1   21 A2   92 A1   39 B2   67 B1   93 A1   94 A1   68 B1                 
  5.439   5.446   5.759   5.778   6.183   7.389   8.253   8.346
 95 A1   69 B1   96 A1   70 B1   97 A1   98 A1   40 B2   71 B1                 
  8.445  20.615  20.685  20.706  20.824  20.851  21.124  49.058
 99 A1  100 A1  101 A1   72 B1  102 A1   73 B1  103 A1  104 A1                 
 80.185  80.258  80.280  80.379  80.404  80.610 241.920 242.011
105 A1  106 A1   74 B1  107 A1   75 B1  108 A1   41 B2   76 B1                 
242.125 322.027 322.095 322.116 322.200 322.221 322.388 485.333
109 A1  110 A1  111 A1   77 B1  112 A1   78 B1  113 A1  114 A1                 
*******1431.6581431.6781431.7481431.7671431.9061562.9251562.997
115 A1  116 A1   79 B1  117 A1   80 B1  118 A1   42 B2   81 B1                 
*******2536.8067647.8027647.8517647.9148749.8358749.8908749.907
119 A1  120 A1   43 B2   82 B1  121 A1  122 A1  123 A1   83 B1                 
*******8749.9808750.0919510.965************************
124 A1   84 B1  125 A1  126 A1  127 A1  128 A1  129 A1                         

 Beta MOs, Restricted
 -- Occupied --                  
-490.03  -65.16  -58.52  -58.52  -58.52  -11.30  -11.26  -11.26
  1 A1    2 A1    3 A1    1 B2    1 B1    4 A1    2 B1    5 A1                 
-11.254 -11.254 -11.251  -9.841  -7.454  -7.445  -7.445  -3.193
  6 A1    3 B1    7 A1    8 A1    9 A1    4 B1    2 B2   10 A1                 
 -3.189  -3.189  -3.179  -3.179  -1.180  -1.076  -1.036  -0.977
  3 B2    5 B1   11 A1    1 A2   12 A1   13 A1    6 B1   14 A1                 
 -0.849  -0.820  -0.714  -0.648  -0.647  -0.608  -0.578  -0.535
  7 B1   15 A1   16 A1    8 B1   17 A1    9 B1   18 A1    4 B2                 
 -0.518  -0.496  -0.440  -0.417  -0.354  -0.335
 10 B1   19 A1    5 B2   11 B1    2 A2    6 B2                                 
 -- Virtual --                   
  0.013   0.020   0.020   0.026   0.029   0.030   0.037   0.040
 20 A1   12 B1   21 A1    7 B2   13 B1   22 A1   23 A1    8 B2                 
  0.043   0.047   0.048   0.054   0.055   0.059   0.063   0.065
  3 A2   14 B1   24 A1    9 B2    4 A2   25 A1   15 B1   26 A1                 
  0.067   0.067   0.069   0.069   0.076   0.082   0.087   0.091
 16 B1   10 B2   27 A1   11 B2   17 B1   28 A1   29 A1   18 B1                 
  0.100   0.101   0.101   0.119   0.123   0.140   0.156   0.165
 12 B2    5 A2   30 A1   19 B1   31 A1   32 A1   13 B2   20 B1                 
  0.174   0.177   0.179   0.196   0.198   0.203   0.207   0.214
 14 B2   33 A1    6 A2   34 A1   21 B1   35 A1   15 B2   36 A1                 
  0.223   0.225   0.229   0.229   0.231   0.241   0.245   0.247
 22 B1   16 B2   37 A1   23 B1    7 A2   38 A1   17 B2   24 B1                 
  0.252   0.254   0.263   0.278   0.289   0.293   0.314   0.337
 39 A1   25 B1   40 A1   41 A1   26 B1   27 B1   42 A1   28 B1                 
  0.342   0.353   0.377   0.413   0.416   0.433   0.442   0.487
 43 A1   18 B2   44 A1   45 A1   29 B1   30 B1   46 A1   47 A1                 
  0.494   0.511   0.512   0.606   0.615   0.619   0.645   0.647
 31 B1   32 B1   48 A1   49 A1   33 B1   19 B2   34 B1   50 A1                 
  0.716   0.729   0.736   0.737   0.741   0.747   0.766   0.774
 51 A1   35 B1   20 B2   36 B1   52 A1   21 B2    8 A2   53 A1                 
  0.787   0.787   0.805   0.824   0.829   0.866   0.888   0.897
  9 A2   37 B1   22 B2   54 A1   10 A2   23 B2   55 A1   56 A1                 
  0.924   0.925   0.935   0.939   0.960   0.985   1.012   1.031
 38 B1   24 B2   57 A1   39 B1   58 A1   59 A1   40 B1   60 A1                 
  1.059   1.069   1.097   1.098   1.112   1.126   1.177   1.203
 41 B1   61 A1   42 B1   62 A1   63 A1   43 B1   44 B1   25 B2                 
  1.203   1.231   1.286   1.293   1.308   1.345   1.374   1.472
 64 A1   11 A2   65 A1   45 B1   12 A2   26 B2   13 A2   66 A1                 
  1.526   1.614   1.725   1.776   1.785   1.817   1.823   1.831
 27 B2   67 A1   46 B1   68 A1   47 B1   69 A1   28 B2   14 A2                 
  1.881   1.905   1.907   1.947   1.990   2.006   2.042   2.102
 29 B2   70 A1   48 B1   71 A1   49 B1   30 B2   15 A2   50 B1                 
  2.147   2.217   2.218   2.219   2.235   2.248   2.272   2.320
 72 A1   51 B1   31 B2   16 A2   52 B1   73 A1   32 B2   74 A1                 
  2.345   2.352   2.366   2.375   2.443   2.594   2.614   2.645
 75 A1   53 B1   17 A2   33 B2   54 B1   34 B2   76 A1   18 A2                 
  2.676   2.742   2.796   2.796   2.849   2.929   2.972   2.991
 55 B1   77 A1   78 A1   56 B1   57 B1   79 A1   80 A1   81 A1                 
  3.009   3.022   3.031   3.039   3.069   3.161   3.186   3.193
 58 B1   82 A1   83 A1   59 B1   35 B2   84 A1   36 B2   60 B1                 
  3.193   3.280   3.286   3.319   3.472   3.530   3.563   3.756
 19 A2   37 B2   20 A2   61 B1   38 B2   85 A1   62 B1   63 B1                 
  3.780   3.899   3.921   4.018   4.139   4.383   4.438   4.501
 86 A1   64 B1   87 A1   88 A1   89 A1   65 B1   90 A1   91 A1                 
  4.515   4.558   4.609   4.638   4.789   4.960   5.114   5.261
 66 B1   21 A2   92 A1   39 B2   67 B1   93 A1   94 A1   68 B1                 
  5.439   5.446   5.759   5.778   6.183   7.389   8.253   8.346
 95 A1   69 B1   96 A1   70 B1   97 A1   98 A1   40 B2   71 B1                 
  8.445  20.615  20.685  20.706  20.824  20.851  21.124  49.058
 99 A1  100 A1  101 A1   72 B1  102 A1   73 B1  103 A1  104 A1                 
 80.185  80.258  80.280  80.379  80.404  80.610 241.920 242.011
105 A1  106 A1   74 B1  107 A1   75 B1  108 A1   41 B2   76 B1                 
242.125 322.027 322.095 322.116 322.200 322.221 322.388 485.333
109 A1  110 A1  111 A1   77 B1  112 A1   78 B1  113 A1  114 A1                 
*******1431.6581431.6781431.7481431.7671431.9061562.9251562.997
115 A1  116 A1   79 B1  117 A1   80 B1  118 A1   42 B2   81 B1                 
*******2536.8067647.8027647.8517647.9148749.8358749.8908749.907
119 A1  120 A1   43 B2   82 B1  121 A1  122 A1  123 A1   83 B1                 
*******8749.9808750.0919510.965************************
124 A1   84 B1  125 A1  126 A1  127 A1  128 A1  129 A1                         
 --------------------------------------------------------------

          Ground-State Mulliken Net Atomic Charges

     Atom                 Charge (a.u.)
  ----------------------------------------
      1 H                     0.259406
      2 C                    -0.225788
      3 C                    -0.163518
      4 H                     0.227400
      5 C                    -0.415131
      6 H                     0.187833
      7 C                    -0.163518
      8 H                     0.227400
      9 C                    -0.225788
     10 H                     0.259406
     11 C                     0.384420
     12 Br                   -0.352120
  ----------------------------------------
  Sum of atomic charges =     0.000000

 -----------------------------------------------------------------
                    Cartesian Multipole Moments
 -----------------------------------------------------------------
    Charge (ESU x 10^10)
                 0.0000
    Dipole Moment (Debye)
         X      -0.0000      Y       0.0000      Z      -2.0241
       Tot       2.0241
    Quadrupole Moments (Debye-Ang)
        XX     -48.3713     XY       0.0000     YY     -58.7595
        XZ      -0.0000     YZ       0.0000     ZZ     -49.5421
    Octopole Moments (Debye-Ang^2)
       XXX      -0.0000    XXY       0.0000    XYY       0.0000
       YYY       0.0000    XXZ      11.2092    XYZ      -0.0000
       YYZ      26.3121    XZZ       0.0000    YZZ       0.0000
       ZZZ      41.1662
    Hexadecapole Moments (Debye-Ang^3)
      XXXX    -283.2331   XXXY       0.0000   XXYY     -72.3332
      XYYY       0.0000   YYYY     -72.6686   XXXZ      -0.0000
      XXYZ       0.0000   XYYZ      -0.0000   YYYZ      -0.0000
      XXZZ    -223.8733   XYZZ       0.0000   YYZZ    -222.8912
      XZZZ      -0.0000   YZZZ       0.0000   ZZZZ   -1014.6851
 -----------------------------------------------------------------
Archival summary:
1\1\node24\SP\ProcedureUnspecified\BasisUnspecified\r165\krylov\MonOct2222:17:412018MonOct2222:17:412018\0\\#,ProcedureUnspecified,BasisUnspecified,\\0,1\Br\C,1,1.884\C,2,1.3922,1,119.37\H,3,1.0802,2,120.072,1,0,0\C,2,1.3922,1,119.37,3,-180,0\H,5,1.0802,2,120.072,1,-0,0\C,3,1.39311,2,119.031,1,-180,0\H,7,1.08133,3,119.353,2,180,0\C,5,1.39311,2,119.031,1,180,0\H,9,1.08133,5,119.353,2,180,0\C,7,1.39319,3,120.463,2,0,0\H,11,1.08081,7,120.124,3,-180,0\\HF=-2802.5467\\@

 Total job time:  38929.77s(wall), 268706.61s(cpu) 
 Mon Oct 22 22:17:41 2018

        *************************************************************
        *                                                           *
        *  Thank you very much for using Q-Chem.  Have a nice day.  *
        *                                                           *
        *************************************************************


