Q-Chem Developer Version!
                  Welcome to Q-Chem
     A Quantum Leap Into The Future Of Chemistry


 Q-Chem 5.1, Q-Chem, Inc., Pleasanton, CA (2018)

 Yihan Shao,  Zhengting Gan,  E. Epifanovsky,  A. T. B. Gilbert,  M. Wormit,  
 J. Kussmann,  A. W. Lange,  A. Behn,  Jia Deng,  Xintian Feng,  D. Ghosh,  
 M. Goldey,  P. R. Horn,  L. D. Jacobson,  I. Kaliman,  T. Kus,  A. Landau,  
 Jie Liu,  E. I. Proynov,  R. M. Richard,  R. P. Steele,  E. J. Sundstrom,  
 H. L. Woodcock III,  P. M. Zimmerman,  D. Zuev,  B. Albrecht,  E. Alguire,  
 S. A. Baeppler,  D. Barton,  Z. Benda,  Y. A. Bernard,  E. J. Berquist,  
 K. B. Bravaya,  H. Burton,  D. Casanova,  Chun-Min Chang,  Yunqing Chen,  
 A. Chien,  K. D. Closser,  M. P. Coons,  S. Coriani,  S. Dasgupta,  
 A. L. Dempwolff,  M. Diedenhofen,  Hainam Do,  R. G. Edgar,  Po-Tung Fang,  
 S. Faraji,  S. Fatehi,  Qingguo Feng,  K. D. Fenk,  J. Fosso-Tande,  
 Qinghui Ge,  A. Ghysels,  G. Gidofalvi,  J. Gomes,  J. Gonthier,  A. Gunina,  
 D. Hait,  M. W. D. Hanson-Heine,  P. H. P. Harbach,  A. W. Hauser,  
 J. E. Herr,  E. G. Hohenstein,  Z. C. Holden,  Kerwin Hui,  B. C. Huynh,  
 T.-C. Jagau,  Hyunjun Ji,  B. Kaduk,  K. Khistyaev,  Jaehoon Kim,  
 P. Klunzinger,  K. Koh,  D. Kosenkov,  L. Koulias,  T. Kowalczyk,  
 C. M. Krauter,  A. Kunitsa,  Ka Un Lao,  A. Laurent,  K. V. Lawler,  
 Joonho Lee,  D. Lefrancois,  S. Lehtola,  D. S. Levine,  Yi-Pei Li,  
 You-Sheng Lin,  Fenglai Liu,  E. Livshits,  A. Luenser,  P. Manohar,  
 E. Mansoor,  S. F. Manzer,  Shan-Ping Mao,  Yuezhi Mao,  N. Mardirossian,  
 A. V. Marenich,  T. Markovich,  L. A. Martinez-Martinez,  S. A. Maurer,  
 N. J. Mayhall,  S. C. McKenzie,  J.-M. Mewes,  A. F. Morrison,  
 J. W. Mullinax,  K. Nanda,  T. S. Nguyen-Beck,  R. Olivares-Amaya,  
 J. A. Parkhill,  T. M. Perrine,  F. Plasser,  P. Pokhilko,  S. Prager,  
 A. Prociuk,  E. Ramos,  D. R. Rehn,  F. Rob,  M. Schneider,  N. Sergueev,  
 S. M. Sharada,  S. Sharma,  D. W. Small,  T. Stauch,  T. Stein,  
 Yu-Chuan Su,  A. J. W. Thom,  A. Tkatchenko,  T. Tsuchimochi,  N. M. Tubman,  
 L. Vogt,  M. L. Vidal,  O. Vydrov,  M. A. Watson,  J. Wenzel,  
 M. de Wergifosse,  T. A. Wesolowski,  A. White,  J. Witte,  A. Yamada,  
 Jun Yang,  K. Yao,  S. Yeganeh,  S. R. Yost,  Zhi-Qiang You,  A. Zech,  
 Igor Ying Zhang,  Xing Zhang,  Yan Zhao,  Ying Zhu,  B. R. Brooks,  
 G. K. L. Chan,  C. J. Cramer,  M. S. Gordon,  W. J. Hehre,  A. Klamt,  
 M. W. Schmidt,  C. D. Sherrill,  D. G. Truhlar,  A. Aspuru-Guzik,  R. Baer,  
 A. T. Bell,  N. A. Besley,  Jeng-Da Chai,  A. E. DePrince, III,  
 R. A. DiStasio Jr.,  A. Dreuw,  B. D. Dunietz,  T. R. Furlani,  
 Chao-Ping Hsu,  Yousung Jung,  Jing Kong,  D. S. Lambrecht,  WanZhen Liang,  
 C. Ochsenfeld,  V. A. Rassolov,  L. V. Slipchenko,  J. E. Subotnik,  
 T. Van Voorhis,  J. M. Herbert,  A. I. Krylov,  P. M. W. Gill,  M. Head-Gordon

 Contributors to earlier versions of Q-Chem not listed above: 
 R. D. Adamson,  B. Austin,  J. Baker,  G. J. O. Beran,  K. Brandhorst,  
 S. T. Brown,  E. F. C. Byrd,  A. K. Chakraborty,  C.-L. Cheng,  
 Siu Hung Chien,  D. M. Chipman,  D. L. Crittenden,  H. Dachsel,  
 R. J. Doerksen,  A. D. Dutoi,  L. Fusti-Molnar,  W. A. Goddard III,  
 A. Golubeva-Zadorozhnaya,  S. R. Gwaltney,  G. Hawkins,  A. Heyden,  
 S. Hirata,  G. Kedziora,  F. J. Keil,  C. Kelley,  Jihan Kim,  R. A. King,  
 R. Z. Khaliullin,  P. P. Korambath,  W. Kurlancheek,  A. M. Lee,  M. S. Lee,  
 S. V. Levchenko,  Ching Yeh Lin,  D. Liotard,  R. C. Lochan,  I. Lotan,  
 P. E. Maslen,  N. Nair,  D. P. O'Neill,  D. Neuhauser,  E. Neuscamman,  
 C. M. Oana,  R. Olson,  B. Peters,  R. Peverati,  P. A. Pieniazek,  
 Y. M. Rhee,  J. Ritchie,  M. A. Rohrdanz,  E. Rosta,  N. J. Russ,  
 H. F. Schaefer III,  N. E. Schultz,  N. Shenvi,  A. C. Simmonett,  A. Sodt,  
 D. Stuck,  K. S. Thanthiriwatte,  V. Vanovschi,  Tao Wang,  A. Warshel,  
 C. F. Williams,  Q. Wu,  X. Xu,  W. Zhang

 Please cite Q-Chem as follows:
 Y. Shao et al., Mol. Phys. 113, 184-215 (2015)
 DOI: 10.1080/00268976.2014.952696

 Q-Chem 5.1.1 for Intel X86 EM64T Linux

 Parts of Q-Chem use Armadillo 8.300.2 (Tropical Shenanigans).
 http://arma.sourceforge.net/

 Q-Chem begins on Mon Sep 24 14:12:57 2018  

node8
Host: 0

     Scratch files written to /scratch/krylov/qchem26456//
Input Ideriv = 1
Curr. Ideriv = -1
Max.  Ideriv = 1

Checking the input file for inconsistencies... 	...done.

--------------------------------------------------------------
User input:
--------------------------------------------------------------
$molecule
0 1
  H    0.0000000    2.1527918    0.4822092
  C    0.0000000    1.2047582   -0.0651382
  C    0.0000000    1.2047582   -1.4562732
  H    0.0000000    2.1527918   -2.0036206
  C    0.0000000   -0.0000000   -2.1518406
  H    0.0000000   -0.0000000   -3.2465355
  C    0.0000000   -1.2047582   -1.4562732
  H   -0.0000000   -2.1527918   -2.0036206
  C   -0.0000000   -1.2047582   -0.0651382
  H   -0.0000000   -2.1527918    0.4822092
  C   -0.0000000    0.0000000    0.6304292
 Br   -0.0000000    0.0000000    1.7251241
$end

$rem
   AUXILIARY_BASIS  =  RIMP2-cc-PVTZ
   BASIS  =  cc-pVTZ
   GUI  =  2
   JOB_TYPE  =  Optimization
   METHOD  =  RI-MP2
   SCF_CONVERGENCE  =  8
   n_frozen_core = FC
$end


--------------------------------------------------------------
 ----------------------------------------------------------------
             Standard Nuclear Orientation (Angstroms)
    I     Atom           X                Y                Z
 ----------------------------------------------------------------
    1      H      -2.1527918000    -0.0000000000     0.1308331474
    2      C      -1.2047582000    -0.0000000000    -0.4165142526
    3      C      -1.2047582000    -0.0000000000    -1.8076492526
    4      H      -2.1527918000    -0.0000000000    -2.3549966526
    5      C      -0.0000000000    -0.0000000000    -2.5032166526
    6      H      -0.0000000000    -0.0000000000    -3.5979115526
    7      C       1.2047582000    -0.0000000000    -1.8076492526
    8      H       2.1527918000    -0.0000000000    -2.3549966526
    9      C       1.2047582000    -0.0000000000    -0.4165142526
   10      H       2.1527918000     0.0000000000     0.1308331474
   11      C      -0.0000000000     0.0000000000     0.2790531474
   12      Br      0.0000000000     0.0000000000     1.3737480474
 ----------------------------------------------------------------
 Molecular Point Group                 C2v   NOp =  4
 Largest Abelian Subgroup              C2v   NOp =  4
 Nuclear Repulsion Energy =   520.0808330078 hartrees
 There are       38 alpha and       38 beta electrons
 Requested basis set is cc-pVTZ
 There are 105 shells and 293 basis functions

 Total QAlloc Memory Limit   2000 MB
 Mega-Array Size       188 MB
 MEM_STATIC part       192 MB
 Requested basis set is rimp2-cc-pVTZ
 There are 226 shells and 802 basis functions
 A cutoff of  1.0D-11 yielded   5195 shell pairs
 There are     40835 function pairs (     53356 Cartesian)

 -------------------------------------------------------
 OpenMP Integral Computing Module                       
 Release: version 1.0, May 2013, Q-Chem Inc. Pittsburgh 
 -------------------------------------------------------
 Integral Job Info:
 Integral job number is                      11
 Integral operator is                         1
 short-range coefficients                     0
 long-range coefficients              100000000
 Omega coefficients                           0
 if combine SR and LR in K                    0
 Integral screening is                        0
 Integral computing path is                   2
 max size of driver memory is            800000
 size of driver memory is                776718
 size of scratch memory is             26991800
 max col of scratch BK array              10000
 max len of scratch array in speh3          662
 max len of scratch index in speh4           32
 max int batch size is                      520
 min int batch size is                       52
 fixed nKL is                                 4
 max L of basis functions is                  3
 order of int derivative is                   0
 number of shells is                        105
 number of basis is                         334
 number of cartesian basis is               334
 number of contracted shell pairs          5195
 number of primitive shell pairs          24748
 maxK2 (contraction) of shell pair          225
 max number of K2 of shell pair               1
 max number of CS2 of shell pair            624
 max number of PS2 of shell pair           2250
 mem total for path MDJ                  649728
 -------------------------------------------------------
 Smallest overlap matrix eigenvalue = 3.44E-05

 Scale SEOQF with 1.000000e-01/1.000000e+00/1.000000e-01

 Standard Electronic Orientation quadrupole field applied
 Nucleus-field energy     =    -0.0000000163 hartrees
 Guess from superposition of atomic densities
 Warning:  Energy on first SCF cycle will be non-variational
 SAD guess density has 76.000000 electrons

 -----------------------------------------------------------------------
  General SCF calculation program by
  Eric Jon Sundstrom, Paul Horn, Yuezhi Mao, Dmitri Zuev, Alec White,
  David Stuck, Shaama M.S., Shane Yost, Joonho Lee, David Small,
  Daniel Levine, Susi Lehtola, Hugh Burton, Evgeny Epifanovsky
 -----------------------------------------------------------------------
 Hartree-Fock
 using 4 threads for integral computing
 -------------------------------------------------------
 OpenMP Integral computing Module                
 Release: version 2.0, May 2017, Q-Chem Inc. Pleasanton 
 -------------------------------------------------------
 A restricted SCF calculation will be
 performed using DIIS
 SCF converges when DIIS error is below 1.0e-08
 ---------------------------------------
  Cycle       Energy         DIIS error
 ---------------------------------------
    1   -2808.2229660844      6.35e-02  
    2   -2801.3881527015      2.43e-03  
    3   -2801.4620302350      9.24e-04  
    4   -2801.4712312246      4.44e-04  
    5   -2801.4736283860      5.24e-05  
    6   -2801.4737164329      2.89e-05  
    7   -2801.4737475886      1.61e-05  
    8   -2801.4737622959      8.48e-06  
    9   -2801.4737675686      2.89e-06  
   10   -2801.4737680501      9.00e-07  
   11   -2801.4737680750      2.09e-07  
   12   -2801.4737680772      6.31e-08  
   13   -2801.4737680776      1.86e-08  
   14   -2801.4737680752      4.72e-09  Convergence criterion met
 ---------------------------------------
 SCF time:   CPU 2398.21s  wall 600.00s 
 SCF   energy in the final basis set =    -2801.4737680752
 Total energy in the final basis set =    -2801.4737680752


 --------------------------------------------------------------
  Generalized many-body perturbation theory program
  by Joonho Lee, Fazle Rob, Xintian Feng, Evgeny Epifanovsky

         1      0.00050387     MINRES Iteration
         2      0.00022191     MINRES Iteration
         3      0.00011397     MINRES Iteration
         4      0.00004171     MINRES Iteration
         5      0.00001519     MINRES Iteration
         6      0.00000497     MINRES Iteration
         7      0.00000174     MINRES Iteration
         8      0.00000043     MINRES Done

 In RI-MP2 calculation: 
 # of frozen core orbitals: 15

 Components of the RIMP2 correlation energy:
        aaaa    correlation energy =        -0.1657338608 a.u.
        abab    correlation energy =        -0.8843136467 a.u.
        bbbb    correlation energy =        -0.1657338608 a.u.
        non-Brillouin singles      =        -0.0000000000 a.u.
        total same-spin energy     =        -0.3314677216 a.u.
        total opposite-spin energy =        -0.8843136467 a.u.

 Total  RIMP2   correlation energy =        -1.2157813683 a.u.
        RIMP2         total energy =     -2802.6895494435 a.u.

 RI-MP2 Gradient Time:  CPU 3398.02 s  wall 854.50 s

 --------------------------------------------------------------
             Orbital Energies (a.u.) and Symmetries
 --------------------------------------------------------------

 Alpha MOs, Restricted
 -- Occupied --                  
-490.02  -65.19  -58.54  -58.54  -58.54  -11.33  -11.24  -11.24
  1 A1    2 A1    3 A1    1 B2    1 B1    4 A1    5 A1    2 B1                 
-11.220 -11.220 -11.209  -9.909  -7.542  -7.506  -7.503  -3.286
  3 B1    6 A1    7 A1    8 A1    9 A1    2 B2    4 B1   10 A1                 
 -3.265  -3.262  -3.239  -3.239  -1.400  -1.122  -1.039  -0.949
  3 B2    5 B1    1 A2   11 A1   12 A1   13 A1    6 B1   14 A1                 
 -0.897  -0.785  -0.716  -0.694  -0.684  -0.652  -0.588  -0.585
  7 B1   15 A1    4 B2    8 B1   16 A1   17 A1    9 B1   18 A1                 
 -0.519  -0.502  -0.459  -0.356  -0.351  -0.254
 10 B1   19 A1    5 B2   11 B1    2 A2    6 B2                                 
 -- Virtual --                   
  0.098   0.113   0.147   0.168   0.178   0.211   0.211   0.221
  7 B2    3 A2   20 A1   12 B1   21 A1   22 A1   13 B1   23 A1                 
  0.270   0.277   0.309   0.364   0.382   0.398   0.416   0.441
  8 B2   14 B1   24 A1   25 A1   15 B1   26 A1    9 B2   16 B1                 
  0.443   0.444   0.455   0.478   0.497   0.503   0.510   0.516
 27 A1    4 A2   10 B2   17 B1   28 A1   11 B2    5 A2   12 B2                 
  0.530   0.537   0.554   0.582   0.587   0.599   0.600   0.616
 18 B1   29 A1   30 A1   19 B1    6 A2   20 B1   31 A1   32 A1                 
  0.630   0.642   0.660   0.669   0.684   0.687   0.711   0.732
 13 B2   21 B1   33 A1   22 B1   14 B2   34 A1   35 A1   36 A1                 
  0.739   0.777   0.816   0.827   0.838   0.853   0.888   0.895
 23 B1   37 A1   24 B1   38 A1   15 B2    7 A2    8 A2   25 B1                 
  0.909   0.943   0.957   0.976   1.000   1.003   1.021   1.031
 26 B1   39 A1   16 B2    9 A2   27 B1   40 A1   41 A1   28 B1                 
  1.079   1.098   1.137   1.140   1.172   1.197   1.208   1.220
 17 B2   42 A1   43 A1   29 B1   18 B2   10 A2   19 B2   44 A1                 
  1.282   1.284   1.301   1.306   1.312   1.357   1.368   1.394
 30 B1   11 A2   20 B2   45 A1   46 A1   47 A1   31 B1   21 B2                 
  1.425   1.464   1.468   1.477   1.500   1.530   1.533   1.572
 32 B1   48 A1   12 A2   33 B1   34 B1   35 B1   49 A1   50 A1                 
  1.584   1.584   1.607   1.615   1.639   1.646   1.682   1.710
 13 A2   22 B2   51 A1   36 B1   52 A1   37 B1   53 A1   54 A1                 
  1.728   1.737   1.755   1.803   1.850   1.916   2.011   2.020
 38 B1   14 A2   23 B2   24 B2   39 B1   55 A1   25 B2   56 A1                 
  2.044   2.089   2.099   2.175   2.188   2.189   2.201   2.214
 40 B1   15 A2   41 B1   16 A2   57 A1   42 B1   26 B2   58 A1                 
  2.245   2.267   2.298   2.348   2.360   2.404   2.443   2.460
 59 A1   60 A1   43 B1   27 B2   44 B1   61 A1   28 B2   17 A2                 
  2.463   2.485   2.543   2.558   2.566   2.659   2.701   2.709
 62 A1   45 B1   29 B2   30 B2   18 A2   63 A1   64 A1   65 A1                 
  2.716   2.763   2.802   2.815   2.820   2.838   2.872   2.892
 46 B1   47 B1   48 B1   66 A1   19 A2   31 B2   67 A1   49 B1                 
  2.923   2.948   2.976   2.977   3.015   3.015   3.032   3.053
 32 B2   33 B2   50 B1   20 A2   34 B2   68 A1   51 B1   35 B2                 
  3.061   3.073   3.094   3.133   3.134   3.181   3.214   3.215
 21 A2   52 B1   69 A1   22 A2   70 A1   71 A1   23 A2   36 B2                 
  3.262   3.281   3.283   3.323   3.335   3.357   3.374   3.375
 37 B2   53 B1   72 A1   38 B2   73 A1   54 B1   55 B1   24 A2                 
  3.378   3.387   3.430   3.434   3.438   3.453   3.477   3.484
 74 A1   75 A1   25 A2   56 B1   57 B1   76 A1   39 B2   77 A1                 
  3.490   3.505   3.545   3.589   3.603   3.631   3.632   3.652
 26 A2   58 B1   78 A1   79 A1   40 B2   27 A2   41 B2   59 B1                 
  3.686   3.688   3.693   3.722   3.730   3.824   3.850   3.904
 28 A2   60 B1   80 A1   61 B1   42 B2   81 A1   29 A2   82 A1                 
  3.920   3.951   3.966   4.001   4.060   4.067   4.082   4.086
 62 B1   43 B2   83 A1   30 A2   63 B1   31 A2   84 A1   44 B2                 
  4.097   4.130   4.141   4.153   4.155   4.182   4.185   4.199
 64 B1   85 A1   65 B1   32 A2   45 B2   86 A1   46 B2   33 A2                 
  4.199   4.312   4.326   4.351   4.374   4.413   4.417   4.429
 66 B1   87 A1   67 B1   88 A1   47 B2   89 A1   34 A2   68 B1                 
  4.438   4.477   4.485   4.513   4.561   4.574   4.586   4.635
 69 B1   48 B2   90 A1   91 A1   70 B1   71 B1   49 B2   92 A1                 
  4.648   4.650   4.655   4.660   4.663   4.675   4.760   4.784
 50 B2   93 A1   35 A2   94 A1   36 A2   72 B1   51 B2   95 A1                 
  4.853   4.901   4.991   4.997   5.013   5.024   5.051   5.081
 73 B1   96 A1   74 B1   97 A1   52 B2   98 A1   53 B2   75 B1                 
  5.087   5.101   5.171   5.237   5.259   5.320   5.328   5.346
 37 A2   76 B1   38 A2   99 A1   54 B2   77 B1  100 A1   39 A2                 
  5.370   5.473   5.529   5.544   5.710   5.737   5.945   5.980
 78 B1  101 A1   79 B1  102 A1   80 B1   55 B2  103 A1   81 B1                 
  6.049   6.052   6.310   6.409   6.453   6.463   6.531   6.816
104 A1  105 A1   82 B1   83 B1   84 B1  106 A1  107 A1  108 A1                 
  7.224  10.621  13.343  13.401  14.268  15.915  18.518
 85 B1  109 A1   86 B1  110 A1   87 B1  111 A1  112 A1                         

 Beta MOs, Restricted
 -- Occupied --                  
-490.02  -65.19  -58.54  -58.54  -58.54  -11.33  -11.24  -11.24
  1 A1    2 A1    3 A1    1 B2    1 B1    4 A1    5 A1    2 B1                 
-11.220 -11.220 -11.209  -9.909  -7.542  -7.506  -7.503  -3.286
  3 B1    6 A1    7 A1    8 A1    9 A1    2 B2    4 B1   10 A1                 
 -3.265  -3.262  -3.239  -3.239  -1.400  -1.122  -1.039  -0.949
  3 B2    5 B1    1 A2   11 A1   12 A1   13 A1    6 B1   14 A1                 
 -0.897  -0.785  -0.716  -0.694  -0.684  -0.652  -0.588  -0.585
  7 B1   15 A1    4 B2    8 B1   16 A1   17 A1    9 B1   18 A1                 
 -0.519  -0.502  -0.459  -0.356  -0.351  -0.254
 10 B1   19 A1    5 B2   11 B1    2 A2    6 B2                                 
 -- Virtual --                   
  0.098   0.113   0.147   0.168   0.178   0.211   0.211   0.221
  7 B2    3 A2   20 A1   12 B1   21 A1   22 A1   13 B1   23 A1                 
  0.270   0.277   0.309   0.364   0.382   0.398   0.416   0.441
  8 B2   14 B1   24 A1   25 A1   15 B1   26 A1    9 B2   16 B1                 
  0.443   0.444   0.455   0.478   0.497   0.503   0.510   0.516
 27 A1    4 A2   10 B2   17 B1   28 A1   11 B2    5 A2   12 B2                 
  0.530   0.537   0.554   0.582   0.587   0.599   0.600   0.616
 18 B1   29 A1   30 A1   19 B1    6 A2   20 B1   31 A1   32 A1                 
  0.630   0.642   0.660   0.669   0.684   0.687   0.711   0.732
 13 B2   21 B1   33 A1   22 B1   14 B2   34 A1   35 A1   36 A1                 
  0.739   0.777   0.816   0.827   0.838   0.853   0.888   0.895
 23 B1   37 A1   24 B1   38 A1   15 B2    7 A2    8 A2   25 B1                 
  0.909   0.943   0.957   0.976   1.000   1.003   1.021   1.031
 26 B1   39 A1   16 B2    9 A2   27 B1   40 A1   41 A1   28 B1                 
  1.079   1.098   1.137   1.140   1.172   1.197   1.208   1.220
 17 B2   42 A1   43 A1   29 B1   18 B2   10 A2   19 B2   44 A1                 
  1.282   1.284   1.301   1.306   1.312   1.357   1.368   1.394
 30 B1   11 A2   20 B2   45 A1   46 A1   47 A1   31 B1   21 B2                 
  1.425   1.464   1.468   1.477   1.500   1.530   1.533   1.572
 32 B1   48 A1   12 A2   33 B1   34 B1   35 B1   49 A1   50 A1                 
  1.584   1.584   1.607   1.615   1.639   1.646   1.682   1.710
 13 A2   22 B2   51 A1   36 B1   52 A1   37 B1   53 A1   54 A1                 
  1.728   1.737   1.755   1.803   1.850   1.916   2.011   2.020
 38 B1   14 A2   23 B2   24 B2   39 B1   55 A1   25 B2   56 A1                 
  2.044   2.089   2.099   2.175   2.188   2.189   2.201   2.214
 40 B1   15 A2   41 B1   16 A2   57 A1   42 B1   26 B2   58 A1                 
  2.245   2.267   2.298   2.348   2.360   2.404   2.443   2.460
 59 A1   60 A1   43 B1   27 B2   44 B1   61 A1   28 B2   17 A2                 
  2.463   2.485   2.543   2.558   2.566   2.659   2.701   2.709
 62 A1   45 B1   29 B2   30 B2   18 A2   63 A1   64 A1   65 A1                 
  2.716   2.763   2.802   2.815   2.820   2.838   2.872   2.892
 46 B1   47 B1   48 B1   66 A1   19 A2   31 B2   67 A1   49 B1                 
  2.923   2.948   2.976   2.977   3.015   3.015   3.032   3.053
 32 B2   33 B2   50 B1   20 A2   34 B2   68 A1   51 B1   35 B2                 
  3.061   3.073   3.094   3.133   3.134   3.181   3.214   3.215
 21 A2   52 B1   69 A1   22 A2   70 A1   71 A1   23 A2   36 B2                 
  3.262   3.281   3.283   3.323   3.335   3.357   3.374   3.375
 37 B2   53 B1   72 A1   38 B2   73 A1   54 B1   55 B1   24 A2                 
  3.378   3.387   3.430   3.434   3.438   3.453   3.477   3.484
 74 A1   75 A1   25 A2   56 B1   57 B1   76 A1   39 B2   77 A1                 
  3.490   3.505   3.545   3.589   3.603   3.631   3.632   3.652
 26 A2   58 B1   78 A1   79 A1   40 B2   27 A2   41 B2   59 B1                 
  3.686   3.688   3.693   3.722   3.730   3.824   3.850   3.904
 28 A2   60 B1   80 A1   61 B1   42 B2   81 A1   29 A2   82 A1                 
  3.920   3.951   3.966   4.001   4.060   4.067   4.082   4.086
 62 B1   43 B2   83 A1   30 A2   63 B1   31 A2   84 A1   44 B2                 
  4.097   4.130   4.141   4.153   4.155   4.182   4.185   4.199
 64 B1   85 A1   65 B1   32 A2   45 B2   86 A1   46 B2   33 A2                 
  4.199   4.312   4.326   4.351   4.374   4.413   4.417   4.429
 66 B1   87 A1   67 B1   88 A1   47 B2   89 A1   34 A2   68 B1                 
  4.438   4.477   4.485   4.513   4.561   4.574   4.586   4.635
 69 B1   48 B2   90 A1   91 A1   70 B1   71 B1   49 B2   92 A1                 
  4.648   4.650   4.655   4.660   4.663   4.675   4.760   4.784
 50 B2   93 A1   35 A2   94 A1   36 A2   72 B1   51 B2   95 A1                 
  4.853   4.901   4.991   4.997   5.013   5.024   5.051   5.081
 73 B1   96 A1   74 B1   97 A1   52 B2   98 A1   53 B2   75 B1                 
  5.087   5.101   5.171   5.237   5.259   5.320   5.328   5.346
 37 A2   76 B1   38 A2   99 A1   54 B2   77 B1  100 A1   39 A2                 
  5.370   5.473   5.529   5.544   5.710   5.737   5.945   5.980
 78 B1  101 A1   79 B1  102 A1   80 B1   55 B2  103 A1   81 B1                 
  6.049   6.052   6.310   6.409   6.453   6.463   6.531   6.816
104 A1  105 A1   82 B1   83 B1   84 B1  106 A1  107 A1  108 A1                 
  7.224  10.621  13.343  13.401  14.268  15.915  18.518
 85 B1  109 A1   86 B1  110 A1   87 B1  111 A1  112 A1                         
 --------------------------------------------------------------

          Ground-State Mulliken Net Atomic Charges

     Atom                 Charge (a.u.)
  ----------------------------------------
      1 H                     0.119244
      2 C                    -0.199607
      3 C                    -0.143061
      4 H                     0.142604
      5 C                    -0.182259
      6 H                     0.141358
      7 C                    -0.143061
      8 H                     0.142604
      9 C                    -0.199607
     10 H                     0.119244
     11 C                    -0.149432
     12 Br                    0.351974
  ----------------------------------------
  Sum of atomic charges =     0.000000

 -----------------------------------------------------------------
                    Cartesian Multipole Moments
 -----------------------------------------------------------------
    Charge (ESU x 10^10)
                 0.0000
    Dipole Moment (Debye)
         X       0.0000      Y      -0.0000      Z      -0.2702
       Tot       0.2702
    Quadrupole Moments (Debye-Ang)
        XX     -48.9538     XY      -0.0000     YY     -55.2166
        XZ      -0.0000     YZ       0.0000     ZZ     -53.0320
    Octopole Moments (Debye-Ang^2)
       XXX       0.0000    XXY      -0.0000    XYY       0.0000
       YYY      -0.0000    XXZ      11.4159    XYZ       0.0000
       YYZ      22.6746    XZZ       0.0000    YZZ       0.0000
       ZZZ      36.0441
    Hexadecapole Moments (Debye-Ang^3)
      XXXX    -293.8609   XXXY      -0.0000   XXYY     -70.7796
      XYYY      -0.0000   YYYY     -62.1306   XXXZ      -0.0000
      XXYZ       0.0000   XYYZ      -0.0000   YYYZ      -0.0000
      XXZZ    -176.3388   XYZZ      -0.0000   YYZZ    -154.6977
      XZZZ      -0.0000   YZZZ      -0.0000   ZZZZ    -751.6533
 -----------------------------------------------------------------
 DrvMan is completing analytic gradient of the MP2 energy
 MP2 relaxed dipole moment
            1
    1   0.0000000
    2  -0.0000000
    3  -0.1062914
	Magnitude:	 0.106 au	 0.270 Debye
 MP2 energy read as -2802.689549
 Full Analytical Gradient of MP2 Energy (in au.)
             1             2             3             4             5
    1   -0.01170631    0.02581514    0.01146813   -0.00694045    0.00000000
    2    0.00000000    0.00000000   -0.00000000   -0.00000000    0.00000000
    3   -0.00178613    0.09975420    0.00012848   -0.00385232    0.01940668
             6             7             8             9            10
    1   -0.00000000   -0.01146813    0.00694045   -0.02581514    0.01170631
    2   -0.00000000    0.00000000   -0.00000000   -0.00000000   -0.00000000
    3   -0.00951802    0.00012848   -0.00385232    0.09975420   -0.00178613
            11            12
    1   -0.00000000   -0.00000000
    2   -0.00000000    0.00000000
    3    2.77429673   -2.97267384
 Gradient time:  CPU 0.34 s  wall 0.39 s
 Geometry Optimization Parameters
   NAtoms,    NIC,     NZ,  NCons,   NDum,   NFix, NCnnct, MaxDiis
       12     107       0       0       0       0       0       0


** GEOMETRY OPTIMIZATION IN DELOCALIZED INTERNAL COORDINATES **
   Searching for a Minimum

   Optimization Cycle:   1

                       Coordinates (Angstroms)
     ATOM                X               Y               Z
      1  H        -2.1527918000    0.0000000000    0.1308331474
      2  C        -1.2047582000    0.0000000000   -0.4165142526
      3  C        -1.2047582000    0.0000000000   -1.8076492526
      4  H        -2.1527918000    0.0000000000   -2.3549966526
      5  C         0.0000000000    0.0000000000   -2.5032166526
      6  H         0.0000000000    0.0000000000   -3.5979115526
      7  C         1.2047582000    0.0000000000   -1.8076492526
      8  H         2.1527918000    0.0000000000   -2.3549966526
      9  C         1.2047582000    0.0000000000   -0.4165142526
     10  H         2.1527918000    0.0000000000    0.1308331474
     11  C         0.0000000000    0.0000000000    0.2790531474
     12  Br        0.0000000000    0.0000000000    1.3737480474
   Point Group: c2v   Number of degrees of freedom:    11


   Energy is  -2802.689549444


 Attempting to Generate Delocalized Internal Coordinates

 ** Taking Steepest Descent Step **
 Calculated Step too Large.  Step scaled by  0.142280
 Step Taken.  Stepsize is  0.300000

                             Maximum     Tolerance    Cnvgd?
         Gradient           1.922859      0.000300      NO
         Displacement       0.273585      0.001200      NO
         Energy change     *********      0.000001      NO


 New Cartesian Coordinates Obtained by Inverse Iteration

 Displacement from previous Coordinates is:  0.161688
 ----------------------------------------------------------------
             Standard Nuclear Orientation (Angstroms)
    I     Atom           X                Y                Z
 ----------------------------------------------------------------
    1      H      -2.1407992699     0.0000000000     0.1326053480
    2      C      -1.1960173611     0.0000000000    -0.4189565820
    3      C      -1.2026668249     0.0000000000    -1.8101675829
    4      H      -2.1521248168     0.0000000000    -2.3538388507
    5      C       0.0000000000     0.0000000000    -2.5083514938
    6      H       0.0000000000     0.0000000000    -3.6023297687
    7      C       1.2026668249     0.0000000000    -1.8101675829
    8      H       2.1521248168     0.0000000000    -2.3538388507
    9      C       1.1960173611     0.0000000000    -0.4189565820
   10      H       2.1407992699     0.0000000000     0.1326053480
   11      C       0.0000000000     0.0000000000     0.2279874586
   12      Br      0.0000000000     0.0000000000     1.4384281074
 ----------------------------------------------------------------
 Molecular Point Group                 C2v   NOp =  4
 Largest Abelian Subgroup              C2v   NOp =  4
 Nuclear Repulsion Energy =   507.2733684869 hartrees
 There are       38 alpha and       38 beta electrons
 Applying Cartesian multipole field
    Component          Value
    ---------          -----
     (2,0,0)        1.00000E-11
     (0,2,0)        2.00000E-10
     (0,0,2)       -3.00000E-11
 Nucleus-field energy     =    -0.0000000170 hartrees
 Requested basis set is cc-pVTZ
 There are 105 shells and 293 basis functions
 Requested basis set is rimp2-cc-pVTZ
 There are 226 shells and 802 basis functions
 A cutoff of  1.0D-11 yielded   5188 shell pairs
 There are     40834 function pairs (     53359 Cartesian)
 Smallest overlap matrix eigenvalue = 3.36E-05
 Guess MOs from SCF MO coefficient file

 -----------------------------------------------------------------------
  General SCF calculation program by
  Eric Jon Sundstrom, Paul Horn, Yuezhi Mao, Dmitri Zuev, Alec White,
  David Stuck, Shaama M.S., Shane Yost, Joonho Lee, David Small,
  Daniel Levine, Susi Lehtola, Hugh Burton, Evgeny Epifanovsky
 -----------------------------------------------------------------------
 Hartree-Fock
 using 4 threads for integral computing
 -------------------------------------------------------
 OpenMP Integral computing Module                
 Release: version 2.0, May 2017, Q-Chem Inc. Pleasanton 
 -------------------------------------------------------
 A restricted SCF calculation will be
 performed using DIIS
 SCF converges when DIIS error is below 1.0e-08
 ---------------------------------------
  Cycle       Energy         DIIS error
 ---------------------------------------
    1   -2801.9531519707      1.69e-03  
    2   -2801.9712011672      5.15e-04  
    3   -2801.9735331161      2.32e-04  
    4   -2801.9742273881      6.79e-05  
    5   -2801.9743703006      3.44e-05  
    6   -2801.9744336392      1.63e-05  
    7   -2801.9744507380      7.47e-06  
    8   -2801.9744540044      2.68e-06  
    9   -2801.9744544065      8.25e-07  
   10   -2801.9744544378      2.94e-07  
   11   -2801.9744544395      8.93e-08  
   12   -2801.9744544397      2.21e-08  
   13   -2801.9744544397      5.46e-09  Convergence criterion met
 ---------------------------------------
 SCF time:   CPU 2855.47s  wall 715.00s 
 SCF   energy in the final basis set =    -2801.9744544397
 Total energy in the final basis set =    -2801.9744544397


 --------------------------------------------------------------
  Generalized many-body perturbation theory program
  by Joonho Lee, Fazle Rob, Xintian Feng, Evgeny Epifanovsky

         1      0.00045919     MINRES Iteration
         2      0.00015733     MINRES Iteration
         3      0.00007318     MINRES Iteration
         4      0.00003318     MINRES Iteration
         5      0.00001462     MINRES Iteration
         6      0.00000486     MINRES Iteration
         7      0.00000174     MINRES Iteration
         8      0.00000043     MINRES Done

 In RI-MP2 calculation: 
 # of frozen core orbitals: 15

 Components of the RIMP2 correlation energy:
        aaaa    correlation energy =        -0.1635618828 a.u.
        abab    correlation energy =        -0.8771970726 a.u.
        bbbb    correlation energy =        -0.1635618828 a.u.
        non-Brillouin singles      =        -0.0000000000 a.u.
        total same-spin energy     =        -0.3271237657 a.u.
        total opposite-spin energy =        -0.8771970726 a.u.

 Total  RIMP2   correlation energy =        -1.2043208382 a.u.
        RIMP2         total energy =     -2803.1787752779 a.u.

 RI-MP2 Gradient Time:  CPU 3379.19 s  wall 849.78 s

 --------------------------------------------------------------
             Orbital Energies (a.u.) and Symmetries
 --------------------------------------------------------------

 Alpha MOs, Restricted
 -- Occupied --                  
-490.01  -65.16  -58.52  -58.52  -58.52  -11.28  -11.24  -11.24
  1 A1    2 A1    3 A1    1 B2    1 B1    4 A1    5 A1    2 B1                 
-11.224 -11.224 -11.220  -9.869  -7.492  -7.470  -7.468  -3.236
  3 B1    6 A1    7 A1    8 A1    9 A1    2 B2    4 B1   10 A1                 
 -3.222  -3.220  -3.206  -3.206  -1.366  -1.129  -1.038  -0.957
  3 B2    5 B1    1 A2   11 A1   12 A1   13 A1    6 B1   14 A1                 
 -0.885  -0.791  -0.692  -0.685  -0.664  -0.653  -0.594  -0.591
  7 B1   15 A1   16 A1    8 B1    4 B2   17 A1    9 B1   18 A1                 
 -0.519  -0.505  -0.460  -0.369  -0.351  -0.269
 10 B1   19 A1    5 B2   11 B1    2 A2    6 B2                                 
 -- Virtual --                   
  0.107   0.112   0.145   0.166   0.177   0.209   0.210   0.220
  7 B2    3 A2   20 A1   12 B1   21 A1   22 A1   13 B1   23 A1                 
  0.276   0.291   0.310   0.366   0.380   0.395   0.415   0.438
  8 B2   14 B1   24 A1   25 A1   15 B1   26 A1    9 B2   16 B1                 
  0.442   0.445   0.450   0.483   0.498   0.509   0.513   0.517
 27 A1    4 A2   10 B2   17 B1   28 A1   11 B2    5 A2   12 B2                 
  0.531   0.534   0.551   0.580   0.590   0.595   0.596   0.612
 18 B1   29 A1   30 A1   19 B1    6 A2   20 B1   31 A1   32 A1                 
  0.621   0.638   0.648   0.676   0.683   0.685   0.712   0.731
 13 B2   21 B1   33 A1   34 A1   22 B1   14 B2   35 A1   36 A1                 
  0.734   0.772   0.821   0.825   0.828   0.852   0.882   0.896
 23 B1   37 A1   24 B1   15 B2   38 A1    7 A2    8 A2   25 B1                 
  0.909   0.945   0.952   0.974   0.999   1.000   1.026   1.028
 26 B1   39 A1   16 B2    9 A2   40 A1   27 B1   41 A1   28 B1                 
  1.081   1.094   1.121   1.140   1.176   1.201   1.206   1.223
 17 B2   42 A1   43 A1   29 B1   18 B2   10 A2   19 B2   44 A1                 
  1.280   1.282   1.299   1.300   1.312   1.342   1.366   1.414
 30 B1   11 A2   20 B2   45 A1   46 A1   47 A1   31 B1   21 B2                 
  1.425   1.467   1.476   1.478   1.495   1.503   1.532   1.552
 32 B1   48 A1   12 A2   33 B1   34 B1   49 A1   35 B1   50 A1                 
  1.580   1.584   1.592   1.610   1.634   1.638   1.672   1.707
 13 A2   22 B2   51 A1   36 B1   52 A1   37 B1   53 A1   54 A1                 
  1.730   1.743   1.749   1.809   1.829   1.907   2.014   2.015
 38 B1   14 A2   23 B2   24 B2   39 B1   55 A1   56 A1   25 B2                 
  2.044   2.077   2.097   2.154   2.168   2.190   2.196   2.208
 40 B1   15 A2   41 B1   16 A2   57 A1   42 B1   26 B2   58 A1                 
  2.234   2.256   2.270   2.303   2.360   2.386   2.416   2.443
 59 A1   60 A1   43 B1   27 B2   44 B1   61 A1   28 B2   62 A1                 
  2.454   2.493   2.531   2.559   2.566   2.615   2.692   2.709
 17 A2   45 B1   29 B2   18 A2   30 B2   63 A1   64 A1   65 A1                 
  2.712   2.747   2.789   2.804   2.813   2.847   2.859   2.889
 46 B1   47 B1   48 B1   19 A2   66 A1   31 B2   67 A1   49 B1                 
  2.912   2.944   2.951   2.973   3.014   3.016   3.030   3.049
 32 B2   33 B2   50 B1   20 A2   34 B2   68 A1   51 B1   35 B2                 
  3.055   3.061   3.076   3.132   3.133   3.149   3.208   3.218
 21 A2   69 A1   52 B1   70 A1   71 A1   22 A2   23 A2   36 B2                 
  3.258   3.265   3.277   3.321   3.324   3.353   3.362   3.370
 72 A1   37 B2   53 B1   38 B2   73 A1   74 A1   54 B1   55 B1                 
  3.373   3.384   3.414   3.422   3.432   3.454   3.463   3.471
 24 A2   75 A1   56 B1   25 A2   76 A1   77 A1   57 B1   39 B2                 
  3.482   3.495   3.539   3.575   3.599   3.633   3.637   3.651
 26 A2   58 B1   78 A1   79 A1   40 B2   41 B2   27 A2   59 B1                 
  3.682   3.683   3.691   3.714   3.726   3.821   3.842   3.901
 28 A2   80 A1   60 B1   61 B1   42 B2   81 A1   29 A2   62 B1                 
  3.903   3.934   3.964   4.001   4.053   4.058   4.072   4.102
 82 A1   43 B2   83 A1   30 A2   84 A1   63 B1   31 A2   44 B2                 
  4.107   4.121   4.144   4.154   4.155   4.181   4.184   4.197
 85 A1   64 B1   65 B1   32 A2   45 B2   46 B2   86 A1   33 A2                 
  4.198   4.288   4.314   4.344   4.352   4.414   4.422   4.425
 66 B1   87 A1   67 B1   47 B2   88 A1   89 A1   34 A2   68 B1                 
  4.428   4.444   4.460   4.521   4.534   4.556   4.569   4.597
 48 B2   69 B1   90 A1   49 B2   91 A1   70 B1   71 B1   92 A1                 
  4.660   4.667   4.672   4.677   4.678   4.688   4.739   4.743
 93 A1   35 A2   72 B1   36 A2   94 A1   50 B2   51 B2   95 A1                 
  4.873   4.901   4.939   4.968   5.013   5.031   5.080   5.083
 73 B1   96 A1   74 B1   97 A1   52 B2   98 A1   53 B2   75 B1                 
  5.088   5.108   5.184   5.240   5.267   5.320   5.341   5.351
 37 A2   76 B1   38 A2   99 A1   54 B2   77 B1  100 A1   39 A2                 
  5.376   5.470   5.529   5.588   5.716   5.751   5.984   5.994
 78 B1  101 A1   79 B1  102 A1   80 B1   55 B2   81 B1  103 A1                 
  6.043   6.068   6.312   6.437   6.472   6.476   6.556   6.847
104 A1  105 A1   82 B1   83 B1  106 A1   84 B1  107 A1  108 A1                 
  7.253  10.532  13.366  13.520  14.544  15.608  17.383
 85 B1  109 A1   86 B1  110 A1   87 B1  111 A1  112 A1                         

 Beta MOs, Restricted
 -- Occupied --                  
-490.01  -65.16  -58.52  -58.52  -58.52  -11.28  -11.24  -11.24
  1 A1    2 A1    3 A1    1 B2    1 B1    4 A1    5 A1    2 B1                 
-11.224 -11.224 -11.220  -9.869  -7.492  -7.470  -7.468  -3.236
  3 B1    6 A1    7 A1    8 A1    9 A1    2 B2    4 B1   10 A1                 
 -3.222  -3.220  -3.206  -3.206  -1.366  -1.129  -1.038  -0.957
  3 B2    5 B1    1 A2   11 A1   12 A1   13 A1    6 B1   14 A1                 
 -0.885  -0.791  -0.692  -0.685  -0.664  -0.653  -0.594  -0.591
  7 B1   15 A1   16 A1    8 B1    4 B2   17 A1    9 B1   18 A1                 
 -0.519  -0.505  -0.460  -0.369  -0.351  -0.269
 10 B1   19 A1    5 B2   11 B1    2 A2    6 B2                                 
 -- Virtual --                   
  0.107   0.112   0.145   0.166   0.177   0.209   0.210   0.220
  7 B2    3 A2   20 A1   12 B1   21 A1   22 A1   13 B1   23 A1                 
  0.276   0.291   0.310   0.366   0.380   0.395   0.415   0.438
  8 B2   14 B1   24 A1   25 A1   15 B1   26 A1    9 B2   16 B1                 
  0.442   0.445   0.450   0.483   0.498   0.509   0.513   0.517
 27 A1    4 A2   10 B2   17 B1   28 A1   11 B2    5 A2   12 B2                 
  0.531   0.534   0.551   0.580   0.590   0.595   0.596   0.612
 18 B1   29 A1   30 A1   19 B1    6 A2   20 B1   31 A1   32 A1                 
  0.621   0.638   0.648   0.676   0.683   0.685   0.712   0.731
 13 B2   21 B1   33 A1   34 A1   22 B1   14 B2   35 A1   36 A1                 
  0.734   0.772   0.821   0.825   0.828   0.852   0.882   0.896
 23 B1   37 A1   24 B1   15 B2   38 A1    7 A2    8 A2   25 B1                 
  0.909   0.945   0.952   0.974   0.999   1.000   1.026   1.028
 26 B1   39 A1   16 B2    9 A2   40 A1   27 B1   41 A1   28 B1                 
  1.081   1.094   1.121   1.140   1.176   1.201   1.206   1.223
 17 B2   42 A1   43 A1   29 B1   18 B2   10 A2   19 B2   44 A1                 
  1.280   1.282   1.299   1.300   1.312   1.342   1.366   1.414
 30 B1   11 A2   20 B2   45 A1   46 A1   47 A1   31 B1   21 B2                 
  1.425   1.467   1.476   1.478   1.495   1.503   1.532   1.552
 32 B1   48 A1   12 A2   33 B1   34 B1   49 A1   35 B1   50 A1                 
  1.580   1.584   1.592   1.610   1.634   1.638   1.672   1.707
 13 A2   22 B2   51 A1   36 B1   52 A1   37 B1   53 A1   54 A1                 
  1.730   1.743   1.749   1.809   1.829   1.907   2.014   2.015
 38 B1   14 A2   23 B2   24 B2   39 B1   55 A1   56 A1   25 B2                 
  2.044   2.077   2.097   2.154   2.168   2.190   2.196   2.208
 40 B1   15 A2   41 B1   16 A2   57 A1   42 B1   26 B2   58 A1                 
  2.234   2.256   2.270   2.303   2.360   2.386   2.416   2.443
 59 A1   60 A1   43 B1   27 B2   44 B1   61 A1   28 B2   62 A1                 
  2.454   2.493   2.531   2.559   2.566   2.615   2.692   2.709
 17 A2   45 B1   29 B2   18 A2   30 B2   63 A1   64 A1   65 A1                 
  2.712   2.747   2.789   2.804   2.813   2.847   2.859   2.889
 46 B1   47 B1   48 B1   19 A2   66 A1   31 B2   67 A1   49 B1                 
  2.912   2.944   2.951   2.973   3.014   3.016   3.030   3.049
 32 B2   33 B2   50 B1   20 A2   34 B2   68 A1   51 B1   35 B2                 
  3.055   3.061   3.076   3.132   3.133   3.149   3.208   3.218
 21 A2   69 A1   52 B1   70 A1   71 A1   22 A2   23 A2   36 B2                 
  3.258   3.265   3.277   3.321   3.324   3.353   3.362   3.370
 72 A1   37 B2   53 B1   38 B2   73 A1   74 A1   54 B1   55 B1                 
  3.373   3.384   3.414   3.422   3.432   3.454   3.463   3.471
 24 A2   75 A1   56 B1   25 A2   76 A1   77 A1   57 B1   39 B2                 
  3.482   3.495   3.539   3.575   3.599   3.633   3.637   3.651
 26 A2   58 B1   78 A1   79 A1   40 B2   41 B2   27 A2   59 B1                 
  3.682   3.683   3.691   3.714   3.726   3.821   3.842   3.901
 28 A2   80 A1   60 B1   61 B1   42 B2   81 A1   29 A2   62 B1                 
  3.903   3.934   3.964   4.001   4.053   4.058   4.072   4.102
 82 A1   43 B2   83 A1   30 A2   84 A1   63 B1   31 A2   44 B2                 
  4.107   4.121   4.144   4.154   4.155   4.181   4.184   4.197
 85 A1   64 B1   65 B1   32 A2   45 B2   46 B2   86 A1   33 A2                 
  4.198   4.288   4.314   4.344   4.352   4.414   4.422   4.425
 66 B1   87 A1   67 B1   47 B2   88 A1   89 A1   34 A2   68 B1                 
  4.428   4.444   4.460   4.521   4.534   4.556   4.569   4.597
 48 B2   69 B1   90 A1   49 B2   91 A1   70 B1   71 B1   92 A1                 
  4.660   4.667   4.672   4.677   4.678   4.688   4.739   4.743
 93 A1   35 A2   72 B1   36 A2   94 A1   50 B2   51 B2   95 A1                 
  4.873   4.901   4.939   4.968   5.013   5.031   5.080   5.083
 73 B1   96 A1   74 B1   97 A1   52 B2   98 A1   53 B2   75 B1                 
  5.088   5.108   5.184   5.240   5.267   5.320   5.341   5.351
 37 A2   76 B1   38 A2   99 A1   54 B2   77 B1  100 A1   39 A2                 
  5.376   5.470   5.529   5.588   5.716   5.751   5.984   5.994
 78 B1  101 A1   79 B1  102 A1   80 B1   55 B2   81 B1  103 A1                 
  6.043   6.068   6.312   6.437   6.472   6.476   6.556   6.847
104 A1  105 A1   82 B1   83 B1  106 A1   84 B1  107 A1  108 A1                 
  7.253  10.532  13.366  13.520  14.544  15.608  17.383
 85 B1  109 A1   86 B1  110 A1   87 B1  111 A1  112 A1                         
 --------------------------------------------------------------

          Ground-State Mulliken Net Atomic Charges

     Atom                 Charge (a.u.)
  ----------------------------------------
      1 H                     0.123867
      2 C                    -0.193865
      3 C                    -0.133005
      4 H                     0.143182
      5 C                    -0.186397
      6 H                     0.144707
      7 C                    -0.133005
      8 H                     0.143182
      9 C                    -0.193865
     10 H                     0.123867
     11 C                    -0.021271
     12 Br                    0.182603
  ----------------------------------------
  Sum of atomic charges =     0.000000

 -----------------------------------------------------------------
                    Cartesian Multipole Moments
 -----------------------------------------------------------------
    Charge (ESU x 10^10)
                 0.0000
    Dipole Moment (Debye)
         X       0.0000      Y       0.0000      Z      -0.5408
       Tot       0.5408
    Quadrupole Moments (Debye-Ang)
        XX     -48.7884     XY      -0.0000     YY     -55.5253
        XZ      -0.0000     YZ       0.0000     ZZ     -52.4316
    Octopole Moments (Debye-Ang^2)
       XXX      -0.0000    XXY       0.0000    XYY      -0.0000
       YYY       0.0000    XXZ      10.3488    XYZ       0.0000
       YYZ      21.0057    XZZ       0.0000    YZZ       0.0000
       ZZZ      33.3262
    Hexadecapole Moments (Debye-Ang^3)
      XXXX    -290.1704   XXXY       0.0000   XXYY     -69.9917
      XYYY      -0.0000   YYYY     -62.8396   XXXZ      -0.0000
      XXYZ      -0.0000   XYYZ      -0.0000   YYYZ       0.0000
      XXZZ    -178.5093   XYZZ       0.0000   YYZZ    -158.0932
      XZZZ      -0.0000   YZZZ       0.0000   ZZZZ    -763.1346
 -----------------------------------------------------------------
 DrvMan is completing analytic gradient of the MP2 energy
 MP2 relaxed dipole moment
            1
    1   0.0000000
    2   0.0000000
    3  -0.2127722
	Magnitude:	 0.213 au	 0.541 Debye
 MP2 energy read as -2803.178775
 Full Analytical Gradient of MP2 Energy (in au.)
             1             2             3             4             5
    1   -0.01118041    0.04403242    0.01389952   -0.00690146    0.00000000
    2   -0.00000000   -0.00000000   -0.00000000    0.00000000    0.00000000
    3   -0.00011573    0.09880819    0.00289417   -0.00341615    0.01783146
             6             7             8             9            10
    1    0.00000000   -0.01389952    0.00690146   -0.04403242    0.01118041
    2    0.00000000   -0.00000000   -0.00000000    0.00000000   -0.00000000
    3   -0.00899455    0.00289417   -0.00341615    0.09880819   -0.00011573
            11            12
    1    0.00000000    0.00000000
    2   -0.00000000    0.00000000
    3    1.56986543   -1.77504328
 Gradient time:  CPU 0.34 s  wall 0.27 s
 Geometry Optimization Parameters
   NAtoms,    NIC,     NZ,  NCons,   NDum,   NFix, NCnnct, MaxDiis
       12     107       0       0       0       0       0       0


** GEOMETRY OPTIMIZATION IN DELOCALIZED INTERNAL COORDINATES **
   Searching for a Minimum

   Optimization Cycle:   2

                       Coordinates (Angstroms)
     ATOM                X               Y               Z
      1  H        -2.1407992699    0.0000000000    0.1326053480
      2  C        -1.1960173611    0.0000000000   -0.4189565820
      3  C        -1.2026668249    0.0000000000   -1.8101675829
      4  H        -2.1521248168    0.0000000000   -2.3538388507
      5  C         0.0000000000    0.0000000000   -2.5083514938
      6  H         0.0000000000    0.0000000000   -3.6023297687
      7  C         1.2026668249    0.0000000000   -1.8101675829
      8  H         2.1521248168    0.0000000000   -2.3538388507
      9  C         1.1960173611    0.0000000000   -0.4189565820
     10  H         2.1407992699    0.0000000000    0.1326053480
     11  C         0.0000000000    0.0000000000    0.2279874586
     12  Br        0.0000000000    0.0000000000    1.4384281074
   Point Group: c2v   Number of degrees of freedom:    11


   Energy is  -2803.178775278

 Hessian Updated using BFGS Update

 ** Taking Steepest Descent Step **
 Calculated Step too Large.  Step scaled by  0.244304
 Step Taken.  Stepsize is  0.300000

                             Maximum     Tolerance    Cnvgd?
         Gradient           1.123634      0.000300      NO
         Displacement       0.274508      0.001200      NO
         Energy change     -0.489226      0.000001      NO


 New Cartesian Coordinates Obtained by Inverse Iteration

 Displacement from previous Coordinates is:  0.161980
 ----------------------------------------------------------------
             Standard Nuclear Orientation (Angstroms)
    I     Atom           X                Y                Z
 ----------------------------------------------------------------
    1      H      -2.1289780917     0.0000000000     0.1335913109
    2      C      -1.1878776331     0.0000000000    -0.4217916283
    3      C      -1.2010272688     0.0000000000    -1.8134644654
    4      H      -2.1514430061     0.0000000000    -2.3534509239
    5      C       0.0000000000     0.0000000000    -2.5143743864
    6      H       0.0000000000     0.0000000000    -3.6071898464
    7      C       1.2010272688     0.0000000000    -1.8134644654
    8      H       2.1514430061     0.0000000000    -2.3534509239
    9      C       1.1878776331     0.0000000000    -0.4217916283
   10      H       2.1289780917     0.0000000000     0.1335913109
   11      C       0.0000000000     0.0000000000     0.1806504207
   12      Br      0.0000000000     0.0000000000     1.5061641940
 ----------------------------------------------------------------
 Molecular Point Group                 C2v   NOp =  4
 Largest Abelian Subgroup              C2v   NOp =  4
 Nuclear Repulsion Energy =   495.9638074566 hartrees
 There are       38 alpha and       38 beta electrons
 Applying Cartesian multipole field
    Component          Value
    ---------          -----
     (2,0,0)        1.00000E-11
     (0,2,0)        2.00000E-10
     (0,0,2)       -3.00000E-11
 Nucleus-field energy     =    -0.0000000178 hartrees
 Requested basis set is cc-pVTZ
 There are 105 shells and 293 basis functions
 Requested basis set is rimp2-cc-pVTZ
 There are 226 shells and 802 basis functions
 A cutoff of  1.0D-11 yielded   5185 shell pairs
 There are     40745 function pairs (     53218 Cartesian)
 Smallest overlap matrix eigenvalue = 3.31E-05
 Guess MOs from SCF MO coefficient file

 -----------------------------------------------------------------------
  General SCF calculation program by
  Eric Jon Sundstrom, Paul Horn, Yuezhi Mao, Dmitri Zuev, Alec White,
  David Stuck, Shaama M.S., Shane Yost, Joonho Lee, David Small,
  Daniel Levine, Susi Lehtola, Hugh Burton, Evgeny Epifanovsky
 -----------------------------------------------------------------------
 Hartree-Fock
 using 4 threads for integral computing
 -------------------------------------------------------
 OpenMP Integral computing Module                
 Release: version 2.0, May 2017, Q-Chem Inc. Pleasanton 
 -------------------------------------------------------
 A restricted SCF calculation will be
 performed using DIIS
 SCF converges when DIIS error is below 1.0e-08
 ---------------------------------------
  Cycle       Energy         DIIS error
 ---------------------------------------
    1   -2802.2529701034      1.24e-03  
    2   -2802.2651142344      3.80e-04  
    3   -2802.2664991808      1.73e-04  
    4   -2802.2668896550      4.98e-05  
    5   -2802.2669614909      2.35e-05  
    6   -2802.2669885367      1.17e-05  
    7   -2802.2669964666      5.03e-06  
    8   -2802.2669978576      1.87e-06  
    9   -2802.2669980540      6.05e-07  
   10   -2802.2669980708      1.76e-07  
   11   -2802.2669980715      5.37e-08  
   12   -2802.2669980715      1.38e-08  
   13   -2802.2669980715      3.33e-09  Convergence criterion met
 ---------------------------------------
 SCF time:   CPU 2804.32s  wall 702.00s 
 SCF   energy in the final basis set =    -2802.2669980715
 Total energy in the final basis set =    -2802.2669980715


 --------------------------------------------------------------
  Generalized many-body perturbation theory program
  by Joonho Lee, Fazle Rob, Xintian Feng, Evgeny Epifanovsky

         1      0.00043753     MINRES Iteration
         2      0.00012858     MINRES Iteration
         3      0.00005104     MINRES Iteration
         4      0.00002555     MINRES Iteration
         5      0.00001227     MINRES Iteration
         6      0.00000428     MINRES Iteration
         7      0.00000159     MINRES Iteration
         8      0.00000043     MINRES Done

 In RI-MP2 calculation: 
 # of frozen core orbitals: 15

 Components of the RIMP2 correlation energy:
        aaaa    correlation energy =        -0.1614873150 a.u.
        abab    correlation energy =        -0.8711737691 a.u.
        bbbb    correlation energy =        -0.1614873150 a.u.
        non-Brillouin singles      =        -0.0000000000 a.u.
        total same-spin energy     =        -0.3229746300 a.u.
        total opposite-spin energy =        -0.8711737691 a.u.

 Total  RIMP2   correlation energy =        -1.1941483992 a.u.
        RIMP2         total energy =     -2803.4611464707 a.u.

 RI-MP2 Gradient Time:  CPU 3352.99 s  wall 843.16 s

 --------------------------------------------------------------
             Orbital Energies (a.u.) and Symmetries
 --------------------------------------------------------------

 Alpha MOs, Restricted
 -- Occupied --                  
-490.00  -65.15  -58.51  -58.51  -58.51  -11.25  -11.24  -11.24
  1 A1    2 A1    3 A1    1 B2    1 B1    4 A1    5 A1    2 B1                 
-11.228 -11.226 -11.226  -9.847  -7.465  -7.450  -7.449  -3.209
  6 A1    3 B1    7 A1    8 A1    9 A1    2 B2    4 B1   10 A1                 
 -3.200  -3.198  -3.188  -3.188  -1.323  -1.131  -1.039  -0.962
  3 B2    5 B1    1 A2   11 A1   12 A1   13 A1    6 B1   14 A1                 
 -0.878  -0.797  -0.698  -0.678  -0.651  -0.628  -0.599  -0.592
  7 B1   15 A1   16 A1    8 B1   17 A1    4 B2    9 B1   18 A1                 
 -0.519  -0.503  -0.458  -0.381  -0.351  -0.285
 10 B1   19 A1    5 B2   11 B1    2 A2    6 B2                                 
 -- Virtual --                   
  0.111   0.115   0.143   0.165   0.176   0.207   0.209   0.218
  3 A2    7 B2   20 A1   12 B1   21 A1   22 A1   13 B1   23 A1                 
  0.283   0.301   0.311   0.364   0.379   0.393   0.414   0.435
  8 B2   14 B1   24 A1   25 A1   15 B1   26 A1    9 B2   16 B1                 
  0.442   0.445   0.446   0.484   0.499   0.502   0.515   0.525
 27 A1    4 A2   10 B2   17 B1   28 A1   11 B2    5 A2   29 A1                 
  0.527   0.531   0.549   0.578   0.592   0.593   0.593   0.609
 12 B2   18 B1   30 A1   19 B1   31 A1   20 B1    6 A2   32 A1                 
  0.612   0.633   0.635   0.669   0.686   0.694   0.711   0.730
 13 B2   33 A1   21 B1   34 A1   14 B2   22 B1   35 A1   23 B1                 
  0.733   0.768   0.813   0.826   0.827   0.851   0.876   0.895
 36 A1   37 A1   15 B2   24 B1   38 A1    7 A2    8 A2   25 B1                 
  0.909   0.944   0.947   0.973   0.994   1.002   1.026   1.031
 26 B1   39 A1   16 B2    9 A2   40 A1   27 B1   28 B1   41 A1                 
  1.079   1.091   1.106   1.140   1.179   1.205   1.205   1.225
 17 B2   42 A1   43 A1   29 B1   18 B2   10 A2   19 B2   44 A1                 
  1.278   1.281   1.282   1.295   1.316   1.322   1.363   1.421
 30 B1   45 A1   11 A2   20 B2   46 A1   47 A1   31 B1   32 B1                 
  1.431   1.440   1.478   1.483   1.492   1.494   1.535   1.541
 21 B2   48 A1   33 B1   12 A2   34 B1   49 A1   35 B1   50 A1                 
  1.577   1.579   1.583   1.603   1.629   1.635   1.668   1.710
 13 A2   22 B2   51 A1   36 B1   37 B1   52 A1   53 A1   54 A1                 
  1.731   1.741   1.748   1.811   1.813   1.897   1.995   2.014
 38 B1   23 B2   14 A2   39 B1   24 B2   55 A1   56 A1   25 B2                 
  2.037   2.050   2.095   2.141   2.154   2.187   2.188   2.201
 40 B1   15 A2   41 B1   16 A2   57 A1   26 B2   42 B1   58 A1                 
  2.226   2.247   2.249   2.267   2.356   2.362   2.402   2.428
 59 A1   60 A1   43 B1   27 B2   61 A1   44 B1   28 B2   62 A1                 
  2.450   2.498   2.516   2.555   2.556   2.574   2.686   2.708
 17 A2   45 B1   29 B2   18 A2   63 A1   30 B2   64 A1   65 A1                 
  2.710   2.732   2.777   2.789   2.806   2.845   2.855   2.860
 46 B1   47 B1   48 B1   19 A2   66 A1   67 A1   31 B2   49 B1                 
  2.902   2.941   2.943   2.969   2.988   3.013   3.021   3.039
 32 B2   33 B2   50 B1   20 A2   68 A1   34 B2   51 B1   69 A1                 
  3.050   3.053   3.084   3.109   3.123   3.150   3.178   3.209
 21 A2   35 B2   52 B1   70 A1   71 A1   22 A2   72 A1   23 A2                 
  3.220   3.266   3.269   3.318   3.320   3.344   3.354   3.373
 36 B2   37 B2   53 B1   38 B2   73 A1   74 A1   54 B1   24 A2                 
  3.374   3.384   3.400   3.415   3.427   3.439   3.468   3.476
 55 B1   75 A1   56 B1   25 A2   76 A1   77 A1   39 B2   26 A2                 
  3.482   3.498   3.533   3.561   3.597   3.635   3.644   3.650
 57 B1   58 B1   78 A1   79 A1   40 B2   41 B2   27 A2   59 B1                 
  3.676   3.680   3.694   3.708   3.724   3.817   3.839   3.876
 80 A1   28 A2   60 B1   61 B1   42 B2   81 A1   29 A2   62 B1                 
  3.899   3.901   3.965   3.986   4.002   4.045   4.078   4.091
 82 A1   43 B2   83 A1   84 A1   30 A2   63 B1   31 A2   85 A1                 
  4.113   4.122   4.156   4.157   4.165   4.169   4.186   4.197
 44 B2   64 B1   45 B2   32 A2   65 B1   46 B2   86 A1   33 A2                 
  4.208   4.231   4.241   4.303   4.344   4.406   4.406   4.418
 66 B1   47 B2   87 A1   67 B1   88 A1   89 A1   48 B2   68 B1                 
  4.429   4.451   4.453   4.506   4.545   4.565   4.568   4.569
 34 A2   90 A1   69 B1   49 B2   70 B1   91 A1   71 B1   92 A1                 
  4.656   4.670   4.671   4.694   4.702   4.702   4.750   4.764
 93 A1   72 B1   35 A2   50 B2   94 A1   36 A2   95 A1   51 B2                 
  4.849   4.901   4.935   4.958   5.014   5.036   5.080   5.091
 73 B1   96 A1   74 B1   97 A1   52 B2   98 A1   75 B1   37 A2                 
  5.118   5.123   5.199   5.245   5.277   5.319   5.357   5.360
 53 B2   76 B1   38 A2   99 A1   54 B2   77 B1  100 A1   39 A2                 
  5.385   5.468   5.535   5.616   5.726   5.763   5.988   6.020
 78 B1  101 A1   79 B1  102 A1   80 B1   55 B2   81 B1  103 A1                 
  6.039   6.059   6.315   6.429   6.477   6.521   6.528   6.860
104 A1  105 A1   82 B1   83 B1  106 A1   84 B1  107 A1  108 A1                 
  7.271  10.194  13.381  13.528  14.763  14.875  17.042
 85 B1  109 A1   86 B1  110 A1  111 A1   87 B1  112 A1                         

 Beta MOs, Restricted
 -- Occupied --                  
-490.00  -65.15  -58.51  -58.51  -58.51  -11.25  -11.24  -11.24
  1 A1    2 A1    3 A1    1 B2    1 B1    4 A1    5 A1    2 B1                 
-11.228 -11.226 -11.226  -9.847  -7.465  -7.450  -7.449  -3.209
  6 A1    3 B1    7 A1    8 A1    9 A1    2 B2    4 B1   10 A1                 
 -3.200  -3.198  -3.188  -3.188  -1.323  -1.131  -1.039  -0.962
  3 B2    5 B1    1 A2   11 A1   12 A1   13 A1    6 B1   14 A1                 
 -0.878  -0.797  -0.698  -0.678  -0.651  -0.628  -0.599  -0.592
  7 B1   15 A1   16 A1    8 B1   17 A1    4 B2    9 B1   18 A1                 
 -0.519  -0.503  -0.458  -0.381  -0.351  -0.285
 10 B1   19 A1    5 B2   11 B1    2 A2    6 B2                                 
 -- Virtual --                   
  0.111   0.115   0.143   0.165   0.176   0.207   0.209   0.218
  3 A2    7 B2   20 A1   12 B1   21 A1   22 A1   13 B1   23 A1                 
  0.283   0.301   0.311   0.364   0.379   0.393   0.414   0.435
  8 B2   14 B1   24 A1   25 A1   15 B1   26 A1    9 B2   16 B1                 
  0.442   0.445   0.446   0.484   0.499   0.502   0.515   0.525
 27 A1    4 A2   10 B2   17 B1   28 A1   11 B2    5 A2   29 A1                 
  0.527   0.531   0.549   0.578   0.592   0.593   0.593   0.609
 12 B2   18 B1   30 A1   19 B1   31 A1   20 B1    6 A2   32 A1                 
  0.612   0.633   0.635   0.669   0.686   0.694   0.711   0.730
 13 B2   33 A1   21 B1   34 A1   14 B2   22 B1   35 A1   23 B1                 
  0.733   0.768   0.813   0.826   0.827   0.851   0.876   0.895
 36 A1   37 A1   15 B2   24 B1   38 A1    7 A2    8 A2   25 B1                 
  0.909   0.944   0.947   0.973   0.994   1.002   1.026   1.031
 26 B1   39 A1   16 B2    9 A2   40 A1   27 B1   28 B1   41 A1                 
  1.079   1.091   1.106   1.140   1.179   1.205   1.205   1.225
 17 B2   42 A1   43 A1   29 B1   18 B2   10 A2   19 B2   44 A1                 
  1.278   1.281   1.282   1.295   1.316   1.322   1.363   1.421
 30 B1   45 A1   11 A2   20 B2   46 A1   47 A1   31 B1   32 B1                 
  1.431   1.440   1.478   1.483   1.492   1.494   1.535   1.541
 21 B2   48 A1   33 B1   12 A2   34 B1   49 A1   35 B1   50 A1                 
  1.577   1.579   1.583   1.603   1.629   1.635   1.668   1.710
 13 A2   22 B2   51 A1   36 B1   37 B1   52 A1   53 A1   54 A1                 
  1.731   1.741   1.748   1.811   1.813   1.897   1.995   2.014
 38 B1   23 B2   14 A2   39 B1   24 B2   55 A1   56 A1   25 B2                 
  2.037   2.050   2.095   2.141   2.154   2.187   2.188   2.201
 40 B1   15 A2   41 B1   16 A2   57 A1   26 B2   42 B1   58 A1                 
  2.226   2.247   2.249   2.267   2.356   2.362   2.402   2.428
 59 A1   60 A1   43 B1   27 B2   61 A1   44 B1   28 B2   62 A1                 
  2.450   2.498   2.516   2.555   2.556   2.574   2.686   2.708
 17 A2   45 B1   29 B2   18 A2   63 A1   30 B2   64 A1   65 A1                 
  2.710   2.732   2.777   2.789   2.806   2.845   2.855   2.860
 46 B1   47 B1   48 B1   19 A2   66 A1   67 A1   31 B2   49 B1                 
  2.902   2.941   2.943   2.969   2.988   3.013   3.021   3.039
 32 B2   33 B2   50 B1   20 A2   68 A1   34 B2   51 B1   69 A1                 
  3.050   3.053   3.084   3.109   3.123   3.150   3.178   3.209
 21 A2   35 B2   52 B1   70 A1   71 A1   22 A2   72 A1   23 A2                 
  3.220   3.266   3.269   3.318   3.320   3.344   3.354   3.373
 36 B2   37 B2   53 B1   38 B2   73 A1   74 A1   54 B1   24 A2                 
  3.374   3.384   3.400   3.415   3.427   3.439   3.468   3.476
 55 B1   75 A1   56 B1   25 A2   76 A1   77 A1   39 B2   26 A2                 
  3.482   3.498   3.533   3.561   3.597   3.635   3.644   3.650
 57 B1   58 B1   78 A1   79 A1   40 B2   41 B2   27 A2   59 B1                 
  3.676   3.680   3.694   3.708   3.724   3.817   3.839   3.876
 80 A1   28 A2   60 B1   61 B1   42 B2   81 A1   29 A2   62 B1                 
  3.899   3.901   3.965   3.986   4.002   4.045   4.078   4.091
 82 A1   43 B2   83 A1   84 A1   30 A2   63 B1   31 A2   85 A1                 
  4.113   4.122   4.156   4.157   4.165   4.169   4.186   4.197
 44 B2   64 B1   45 B2   32 A2   65 B1   46 B2   86 A1   33 A2                 
  4.208   4.231   4.241   4.303   4.344   4.406   4.406   4.418
 66 B1   47 B2   87 A1   67 B1   88 A1   89 A1   48 B2   68 B1                 
  4.429   4.451   4.453   4.506   4.545   4.565   4.568   4.569
 34 A2   90 A1   69 B1   49 B2   70 B1   91 A1   71 B1   92 A1                 
  4.656   4.670   4.671   4.694   4.702   4.702   4.750   4.764
 93 A1   72 B1   35 A2   50 B2   94 A1   36 A2   95 A1   51 B2                 
  4.849   4.901   4.935   4.958   5.014   5.036   5.080   5.091
 73 B1   96 A1   74 B1   97 A1   52 B2   98 A1   75 B1   37 A2                 
  5.118   5.123   5.199   5.245   5.277   5.319   5.357   5.360
 53 B2   76 B1   38 A2   99 A1   54 B2   77 B1  100 A1   39 A2                 
  5.385   5.468   5.535   5.616   5.726   5.763   5.988   6.020
 78 B1  101 A1   79 B1  102 A1   80 B1   55 B2   81 B1  103 A1                 
  6.039   6.059   6.315   6.429   6.477   6.521   6.528   6.860
104 A1  105 A1   82 B1   83 B1  106 A1   84 B1  107 A1  108 A1                 
  7.271  10.194  13.381  13.528  14.763  14.875  17.042
 85 B1  109 A1   86 B1  110 A1  111 A1   87 B1  112 A1                         
 --------------------------------------------------------------

          Ground-State Mulliken Net Atomic Charges

     Atom                 Charge (a.u.)
  ----------------------------------------
      1 H                     0.129762
      2 C                    -0.191243
      3 C                    -0.127034
      4 H                     0.144233
      5 C                    -0.187297
      6 H                     0.148649
      7 C                    -0.127034
      8 H                     0.144233
      9 C                    -0.191243
     10 H                     0.129762
     11 C                     0.060936
     12 Br                    0.066276
  ----------------------------------------
  Sum of atomic charges =     0.000000

 -----------------------------------------------------------------
                    Cartesian Multipole Moments
 -----------------------------------------------------------------
    Charge (ESU x 10^10)
                 0.0000
    Dipole Moment (Debye)
         X       0.0000      Y       0.0000      Z      -0.8375
       Tot       0.8375
    Quadrupole Moments (Debye-Ang)
        XX     -48.6195     XY       0.0000     YY     -55.8196
        XZ      -0.0000     YZ      -0.0000     ZZ     -52.0075
    Octopole Moments (Debye-Ang^2)
       XXX      -0.0000    XXY       0.0000    XYY       0.0000
       YYY       0.0000    XXZ       9.2203    XYZ       0.0000
       YYZ      19.3169    XZZ       0.0000    YZZ       0.0000
       ZZZ      29.8965
    Hexadecapole Moments (Debye-Ang^3)
      XXXX    -286.6934   XXXY      -0.0000   XXYY     -69.3081
      XYYY       0.0000   YYYY     -63.5574   XXXZ       0.0000
      XXYZ      -0.0000   XYYZ      -0.0000   YYYZ      -0.0000
      XXZZ    -181.4209   XYZZ       0.0000   YYZZ    -162.0939
      XZZZ      -0.0000   YZZZ      -0.0000   ZZZZ    -778.3236
 -----------------------------------------------------------------
 DrvMan is completing analytic gradient of the MP2 energy
 MP2 relaxed dipole moment
            1
    1   0.0000000
    2   0.0000000
    3  -0.3294920
	Magnitude:	 0.329 au	 0.837 Debye
 MP2 energy read as -2803.461146
 Full Analytical Gradient of MP2 Energy (in au.)
             1             2             3             4             5
    1   -0.01063147    0.06372627    0.01561656   -0.00657890    0.00000000
    2    0.00000000    0.00000000    0.00000000   -0.00000000   -0.00000000
    3    0.00077636    0.10038099    0.00577878   -0.00283394    0.01521907
             6             7             8             9            10
    1   -0.00000000   -0.01561656    0.00657890   -0.06372627    0.01063147
    2    0.00000000    0.00000000   -0.00000000   -0.00000000   -0.00000000
    3   -0.00825243    0.00577878   -0.00283394    0.10038099    0.00077636
            11            12
    1    0.00000000   -0.00000000
    2    0.00000000   -0.00000000
    3    0.83966434   -1.05483537
 Gradient time:  CPU 0.34 s  wall 0.27 s
 Geometry Optimization Parameters
   NAtoms,    NIC,     NZ,  NCons,   NDum,   NFix, NCnnct, MaxDiis
       12     107       0       0       0       0       0       0


** GEOMETRY OPTIMIZATION IN DELOCALIZED INTERNAL COORDINATES **
   Searching for a Minimum

   Optimization Cycle:   3

                       Coordinates (Angstroms)
     ATOM                X               Y               Z
      1  H        -2.1289780917    0.0000000000    0.1335913109
      2  C        -1.1878776331    0.0000000000   -0.4217916283
      3  C        -1.2010272688    0.0000000000   -1.8134644654
      4  H        -2.1514430061    0.0000000000   -2.3534509239
      5  C         0.0000000000    0.0000000000   -2.5143743864
      6  H         0.0000000000    0.0000000000   -3.6071898464
      7  C         1.2010272688    0.0000000000   -1.8134644654
      8  H         2.1514430061    0.0000000000   -2.3534509239
      9  C         1.1878776331    0.0000000000   -0.4217916283
     10  H         2.1289780917    0.0000000000    0.1335913109
     11  C         0.0000000000    0.0000000000    0.1806504207
     12  Br        0.0000000000    0.0000000000    1.5061641940
   Point Group: c2v   Number of degrees of freedom:    11


   Energy is  -2803.461146471

 Hessian Updated using BFGS Update

 ** Taking Steepest Descent Step **
 Calculated Step too Large.  Step scaled by  0.427659
 Step Taken.  Stepsize is  0.300000

                             Maximum     Tolerance    Cnvgd?
         Gradient           0.641517      0.000300      NO
         Displacement       0.274350      0.001200      NO
         Energy change     -0.282371      0.000001      NO


 New Cartesian Coordinates Obtained by Inverse Iteration

 Displacement from previous Coordinates is:  0.161773
 ----------------------------------------------------------------
             Standard Nuclear Orientation (Angstroms)
    I     Atom           X                Y                Z
 ----------------------------------------------------------------
    1      H      -2.1196628220     0.0000000000     0.1331355753
    2      C      -1.1827313880     0.0000000000    -0.4250406977
    3      C      -1.2009939028     0.0000000000    -1.8181171045
    4      H      -2.1511902708     0.0000000000    -2.3552225140
    5      C       0.0000000000     0.0000000000    -2.5213045561
    6      H       0.0000000000     0.0000000000    -3.6122524323
    7      C       1.2009939028     0.0000000000    -1.8181171045
    8      H       2.1511902708     0.0000000000    -2.3552225140
    9      C       1.1827313880     0.0000000000    -0.4250406977
   10      H       2.1196628220     0.0000000000     0.1331355753
   11      C       0.0000000000     0.0000000000     0.1400438849
   12      Br      0.0000000000     0.0000000000     1.5790215536
 ----------------------------------------------------------------
 Molecular Point Group                 C2v   NOp =  4
 Largest Abelian Subgroup              C2v   NOp =  4
 Nuclear Repulsion Energy =   485.3851693856 hartrees
 There are       38 alpha and       38 beta electrons
 Applying Cartesian multipole field
    Component          Value
    ---------          -----
     (2,0,0)        1.00000E-11
     (0,2,0)        2.00000E-10
     (0,0,2)       -3.00000E-11
 Nucleus-field energy     =    -0.0000000187 hartrees
 Requested basis set is cc-pVTZ
 There are 105 shells and 293 basis functions
 Requested basis set is rimp2-cc-pVTZ
 There are 226 shells and 802 basis functions
 A cutoff of  1.0D-11 yielded   5179 shell pairs
 There are     40683 function pairs (     53132 Cartesian)
 Smallest overlap matrix eigenvalue = 3.30E-05
 Guess MOs from SCF MO coefficient file

 -----------------------------------------------------------------------
  General SCF calculation program by
  Eric Jon Sundstrom, Paul Horn, Yuezhi Mao, Dmitri Zuev, Alec White,
  David Stuck, Shaama M.S., Shane Yost, Joonho Lee, David Small,
  Daniel Levine, Susi Lehtola, Hugh Burton, Evgeny Epifanovsky
 -----------------------------------------------------------------------
 Hartree-Fock
 using 4 threads for integral computing
 -------------------------------------------------------
 OpenMP Integral computing Module                
 Release: version 2.0, May 2017, Q-Chem Inc. Pleasanton 
 -------------------------------------------------------
 A restricted SCF calculation will be
 performed using DIIS
 SCF converges when DIIS error is below 1.0e-08
 ---------------------------------------
  Cycle       Energy         DIIS error
 ---------------------------------------
    1   -2802.4251187459      9.51e-04  
    2   -2802.4335389373      2.90e-04  
    3   -2802.4343769481      1.34e-04  
    4   -2802.4346040064      3.65e-05  
    5   -2802.4346363823      1.52e-05  
    6   -2802.4346464831      7.68e-06  
    7   -2802.4346496559      3.35e-06  
    8   -2802.4346502668      1.21e-06  
    9   -2802.4346503497      4.28e-07  
   10   -2802.4346503579      1.18e-07  
   11   -2802.4346503582      3.34e-08  
   12   -2802.4346503582      8.90e-09  Convergence criterion met
 ---------------------------------------
 SCF time:   CPU 2552.76s  wall 639.00s 
 SCF   energy in the final basis set =    -2802.4346503582
 Total energy in the final basis set =    -2802.4346503582


 --------------------------------------------------------------
  Generalized many-body perturbation theory program
  by Joonho Lee, Fazle Rob, Xintian Feng, Evgeny Epifanovsky

         1      0.00042432     MINRES Iteration
         2      0.00011747     MINRES Iteration
         3      0.00004275     MINRES Iteration
         4      0.00002149     MINRES Iteration
         5      0.00001010     MINRES Iteration
         6      0.00000373     MINRES Iteration
         7      0.00000144     MINRES Iteration
         8      0.00000040     MINRES Done

 In RI-MP2 calculation: 
 # of frozen core orbitals: 15

 Components of the RIMP2 correlation energy:
        aaaa    correlation energy =        -0.1597392206 a.u.
        abab    correlation energy =        -0.8666807453 a.u.
        bbbb    correlation energy =        -0.1597392206 a.u.
        non-Brillouin singles      =        -0.0000000000 a.u.
        total same-spin energy     =        -0.3194784411 a.u.
        total opposite-spin energy =        -0.8666807453 a.u.

 Total  RIMP2   correlation energy =        -1.1861591864 a.u.
        RIMP2         total energy =     -2803.6208095447 a.u.

 RI-MP2 Gradient Time:  CPU 3329.35 s  wall 837.31 s

 --------------------------------------------------------------
             Orbital Energies (a.u.) and Symmetries
 --------------------------------------------------------------

 Alpha MOs, Restricted
 -- Occupied --                  
-490.00  -65.15  -58.50  -58.50  -58.50  -11.25  -11.25  -11.25
  1 A1    2 A1    3 A1    1 B2    1 B1    4 A1    5 A1    2 B1                 
-11.233 -11.227 -11.227  -9.836  -7.451  -7.440  -7.440  -3.194
  6 A1    3 B1    7 A1    8 A1    9 A1    2 B2    4 B1   10 A1                 
 -3.188  -3.187  -3.178  -3.178  -1.283  -1.129  -1.040  -0.966
  3 B2    5 B1    1 A2   11 A1   12 A1   13 A1    6 B1   14 A1                 
 -0.873  -0.802  -0.703  -0.671  -0.648  -0.604  -0.602  -0.590
  7 B1   15 A1   16 A1    8 B1   17 A1    9 B1    4 B2   18 A1                 
 -0.520  -0.499  -0.455  -0.391  -0.351  -0.300
 10 B1   19 A1    5 B2   11 B1    2 A2    6 B2                                 
 -- Virtual --                   
  0.110   0.121   0.142   0.165   0.176   0.206   0.208   0.215
  3 A2    7 B2   20 A1   12 B1   21 A1   22 A1   13 B1   23 A1                 
  0.290   0.308   0.313   0.361   0.378   0.392   0.413   0.430
  8 B2   14 B1   24 A1   25 A1   15 B1   26 A1    9 B2   16 B1                 
  0.441   0.442   0.445   0.483   0.495   0.499   0.511   0.516
 27 A1   10 B2    4 A2   17 B1   11 B2   28 A1   29 A1    5 A2                 
  0.530   0.535   0.547   0.578   0.589   0.591   0.596   0.604
 18 B1   12 B2   30 A1   19 B1   31 A1   20 B1    6 A2   13 B2                 
  0.606   0.621   0.633   0.665   0.685   0.700   0.711   0.727
 32 A1   33 A1   21 B1   34 A1   14 B2   22 B1   35 A1   23 B1                 
  0.735   0.768   0.803   0.824   0.830   0.850   0.871   0.893
 36 A1   37 A1   15 B2   38 A1   24 B1    7 A2    8 A2   25 B1                 
  0.909   0.941   0.942   0.971   0.987   1.005   1.025   1.033
 26 B1   39 A1   16 B2    9 A2   40 A1   27 B1   28 B1   41 A1                 
  1.076   1.088   1.095   1.140   1.181   1.205   1.207   1.214
 17 B2   42 A1   43 A1   29 B1   18 B2   19 B2   10 A2   44 A1                 
  1.252   1.275   1.282   1.289   1.308   1.321   1.360   1.415
 45 A1   30 B1   11 A2   20 B2   46 A1   47 A1   31 B1   48 A1                 
  1.415   1.445   1.479   1.487   1.491   1.498   1.529   1.537
 32 B1   21 B2   33 B1   12 A2   34 B1   49 A1   50 A1   35 B1                 
  1.570   1.575   1.575   1.593   1.624   1.638   1.671   1.716
 22 B2   51 A1   13 A2   36 B1   37 B1   52 A1   53 A1   54 A1                 
  1.731   1.734   1.751   1.797   1.812   1.876   1.976   2.010
 38 B1   23 B2   14 A2   39 B1   24 B2   55 A1   56 A1   25 B2                 
  2.016   2.025   2.092   2.131   2.146   2.168   2.183   2.188
 15 A2   40 B1   41 B1   16 A2   57 A1   26 B2   42 B1   58 A1                 
  2.222   2.231   2.233   2.254   2.328   2.363   2.392   2.396
 59 A1   60 A1   43 B1   27 B2   61 A1   44 B1   28 B2   62 A1                 
  2.447   2.497   2.501   2.507   2.552   2.573   2.683   2.700
 17 A2   45 B1   29 B2   63 A1   18 A2   30 B2   64 A1   46 B1                 
  2.704   2.720   2.767   2.774   2.794   2.814   2.830   2.858
 65 A1   47 B1   48 B1   19 A2   66 A1   49 B1   67 A1   31 B2                 
  2.893   2.938   2.940   2.962   2.964   3.010   3.012   3.025
 32 B2   33 B2   50 B1   68 A1   20 A2   51 B1   34 B2   69 A1                 
  3.045   3.060   3.082   3.093   3.106   3.143   3.144   3.212
 21 A2   35 B2   70 A1   52 B1   71 A1   22 A2   72 A1   23 A2                 
  3.222   3.256   3.266   3.308   3.319   3.339   3.342   3.373
 36 B2   53 B1   37 B2   38 B2   73 A1   74 A1   54 B1   24 A2                 
  3.374   3.382   3.395   3.410   3.426   3.434   3.469   3.472
 55 B1   75 A1   56 B1   25 A2   76 A1   77 A1   39 B2   26 A2                 
  3.480   3.517   3.525   3.546   3.594   3.634   3.647   3.649
 57 B1   58 B1   78 A1   79 A1   40 B2   41 B2   59 B1   27 A2                 
  3.671   3.680   3.696   3.706   3.722   3.809   3.833   3.838
 80 A1   28 A2   60 B1   61 B1   42 B2   81 A1   43 B2   29 A2                 
  3.843   3.892   3.927   3.969   4.001   4.028   4.066   4.082
 62 B1   82 A1   83 A1   84 A1   30 A2   63 B1   85 A1   31 A2                 
  4.090   4.119   4.127   4.160   4.160   4.178   4.178   4.190
 44 B2   64 B1   45 B2   46 B2   32 A2   86 A1   65 B1   47 B2                 
  4.198   4.220   4.222   4.292   4.330   4.366   4.404   4.410
 33 A2   66 B1   87 A1   67 B1   88 A1   89 A1   48 B2   68 B1                 
  4.436   4.440   4.463   4.502   4.534   4.536   4.566   4.574
 34 A2   90 A1   69 B1   49 B2   70 B1   91 A1   71 B1   92 A1                 
  4.646   4.669   4.673   4.691   4.700   4.726   4.782   4.790
 93 A1   72 B1   35 A2   50 B2   94 A1   36 A2   95 A1   51 B2                 
  4.814   4.907   4.944   4.971   5.016   5.037   5.072   5.095
 73 B1   96 A1   74 B1   97 A1   52 B2   98 A1   75 B1   37 A2                 
  5.143   5.155   5.212   5.249   5.290   5.318   5.372   5.372
 76 B1   53 B2   38 A2   99 A1   54 B2   77 B1   39 A2  100 A1                 
  5.395   5.468   5.543   5.632   5.736   5.773   5.990   5.995
 78 B1  101 A1   79 B1  102 A1   80 B1   55 B2  103 A1   81 B1                 
  6.031   6.052   6.315   6.401   6.412   6.477   6.556   6.839
104 A1  105 A1   82 B1  106 A1   83 B1  107 A1   84 B1  108 A1                 
  7.276   9.683  13.303  13.373  14.339  15.171  17.044
 85 B1  109 A1  110 A1   86 B1  111 A1   87 B1  112 A1                         

 Beta MOs, Restricted
 -- Occupied --                  
-490.00  -65.15  -58.50  -58.50  -58.50  -11.25  -11.25  -11.25
  1 A1    2 A1    3 A1    1 B2    1 B1    4 A1    5 A1    2 B1                 
-11.233 -11.227 -11.227  -9.836  -7.451  -7.440  -7.440  -3.194
  6 A1    3 B1    7 A1    8 A1    9 A1    2 B2    4 B1   10 A1                 
 -3.188  -3.187  -3.178  -3.178  -1.283  -1.129  -1.040  -0.966
  3 B2    5 B1    1 A2   11 A1   12 A1   13 A1    6 B1   14 A1                 
 -0.873  -0.802  -0.703  -0.671  -0.648  -0.604  -0.602  -0.590
  7 B1   15 A1   16 A1    8 B1   17 A1    9 B1    4 B2   18 A1                 
 -0.520  -0.499  -0.455  -0.391  -0.351  -0.300
 10 B1   19 A1    5 B2   11 B1    2 A2    6 B2                                 
 -- Virtual --                   
  0.110   0.121   0.142   0.165   0.176   0.206   0.208   0.215
[...]
       XXX      -0.0000    XXY      -0.0000    XYY      -0.0000
       YYY      -0.0000    XXZ      -1.9897    XYZ       0.0000
       YYZ       8.4297    XZZ       0.0000    YZZ      -0.0000
       ZZZ       0.3078
    Hexadecapole Moments (Debye-Ang^3)
      XXXX    -288.7840   XXXY       0.0000   XXYY     -70.4253
      XYYY       0.0000   YYYY     -67.6151   XXXZ      -0.0000
      XXYZ      -0.0000   XYYZ       0.0000   YYYZ      -0.0000
      XXZZ    -222.0033   XYZZ      -0.0000   YYZZ    -206.9365
      XZZZ      -0.0000   YZZZ       0.0000   ZZZZ    -997.1784
 -----------------------------------------------------------------
 DrvMan is completing analytic gradient of the MP2 energy
 MP2 relaxed dipole moment
            1
    1  -0.0000000
    2  -0.0000000
    3  -0.6762050
	Magnitude:	 0.676 au	 1.719 Debye
 MP2 energy read as -2803.828319
 Full Analytical Gradient of MP2 Energy (in au.)
             1             2             3             4             5
    1   -0.00000484    0.00000184    0.00000058   -0.00000105   -0.00000000
    2   -0.00000000   -0.00000000    0.00000000    0.00000000    0.00000000
    3   -0.00000813   -0.00000072   -0.00000137    0.00000141   -0.00000355
             6             7             8             9            10
    1    0.00000000   -0.00000058    0.00000105   -0.00000184    0.00000484
    2    0.00000000    0.00000000   -0.00000000   -0.00000000   -0.00000000
    3    0.00000040   -0.00000137    0.00000141   -0.00000072   -0.00000813
            11            12
    1    0.00000000   -0.00000000
    2   -0.00000000   -0.00000000
    3   -0.00003387    0.00005463
 Gradient time:  CPU 0.32 s  wall 0.27 s
 Geometry Optimization Parameters
   NAtoms,    NIC,     NZ,  NCons,   NDum,   NFix, NCnnct, MaxDiis
       12     107       0       0       0       0       0       0

 Cartesian Hessian Update
 Hessian Updated using BFGS Update


** GEOMETRY OPTIMIZATION IN DELOCALIZED INTERNAL COORDINATES **
   Searching for a Minimum

   Optimization Cycle:  14

                       Coordinates (Angstroms)
     ATOM                X               Y               Z
      1  H        -2.1434404908    0.0000000000    0.0671963029
      2  C        -1.2132672529    0.0000000000   -0.4819994175
      3  C        -1.2050294832    0.0000000000   -1.8750832747
      4  H        -2.1443854307    0.0000000000   -2.4107048522
      5  C         0.0000000000    0.0000000000   -2.5742906665
      6  H         0.0000000000    0.0000000000   -3.6551007732
      7  C         1.2050294832    0.0000000000   -1.8750832747
      8  H         2.1443854307    0.0000000000   -2.4107048522
      9  C         1.2132672529    0.0000000000   -0.4819994175
     10  H         2.1434404908    0.0000000000    0.0671963029
     11  C         0.0000000000    0.0000000000    0.2007961851
     12  Br        0.0000000000    0.0000000000    2.0847967058
   Point Group: c2v   Number of degrees of freedom:    11


   Energy is  -2803.828318983

 Hessian Updated using BFGS Update

 11 Hessian modes will be used to form the next step
  Hessian Eigenvalues:
     0.074873    0.150036    0.159698    0.168189    0.220834    0.341220
     0.342764    0.342953    0.365313    0.457241    0.480311

 Minimum Search - Taking Simple RFO Step
 Searching for Lamda that Minimizes Along All modes
 Value Taken    Lamda =   0.00000000
 Step Taken.  Stepsize is  0.000429

                             Maximum     Tolerance    Cnvgd?
         Gradient           0.000029      0.000300     YES
         Displacement       0.000316      0.001200     YES
         Energy change     -0.000000      0.000001     YES


                       Distance Matrix (Angstroms)
             H (  1)   C (  2)   C (  3)   H (  4)   C (  5)   H (  6)
   C (  2)  1.080203
   C (  3)  2.157096  1.393108
   H (  4)  2.477901  2.141702  1.081333
   C (  5)  3.401733  2.418615  1.393193  2.150616
   H (  6)  4.295327  3.397144  2.149548  2.479296  1.080810
   C (  7)  3.871008  2.790850  2.410059  3.391972  1.393193  2.149548
   H (  8)  4.952317  3.872175  3.391972  4.288771  2.150616  2.479296
   C (  9)  3.401338  2.426535  2.790850  3.872175  2.418615  3.397144
   H ( 10)  4.286881  3.401338  3.871008  4.952317  3.401733  4.295327
   C ( 11)  2.147600  1.392202  2.400286  3.379101  2.775087  3.855897
   Br( 12)  2.943645  2.839095  4.139172  4.980755  4.659087  5.739897
             C (  7)   H (  8)   C (  9)   H ( 10)   C ( 11)
   H (  8)  1.081333
   C (  9)  1.393108  2.141702
   H ( 10)  2.157096  2.477901  1.080203
   C ( 11)  2.400286  3.379101  1.392202  2.147600
   Br( 12)  4.139172  4.980755  2.839095  2.943645  1.884001

 Final energy is   -2803.8283189831113     


 ******************************
 **  OPTIMIZATION CONVERGED  **
 ******************************

                       Coordinates (Angstroms)
     ATOM                X               Y               Z
      1  H        -2.1434404908    0.0000000000    0.0671963029
      2  C        -1.2132672529    0.0000000000   -0.4819994175
      3  C        -1.2050294832    0.0000000000   -1.8750832747
      4  H        -2.1443854307    0.0000000000   -2.4107048522
      5  C         0.0000000000    0.0000000000   -2.5742906665
      6  H         0.0000000000    0.0000000000   -3.6551007732
      7  C         1.2050294832    0.0000000000   -1.8750832747
      8  H         2.1443854307    0.0000000000   -2.4107048522
      9  C         1.2132672529    0.0000000000   -0.4819994175
     10  H         2.1434404908    0.0000000000    0.0671963029
     11  C         0.0000000000    0.0000000000    0.2007961851
     12  Br        0.0000000000    0.0000000000    2.0847967058

Z-matrix Print:
$molecule
0 1
Br
C  1 1.884001
C  2 1.392202 1 119.369690
H  3 1.080203 2 120.071728 1 -0.000000 0
C  2 1.392202 1 119.369690 3 -180.000000 0
H  5 1.080203 2 120.071728 1 -0.000000 0
C  3 1.393108 2 119.030885 1 -180.000000 0
H  7 1.081333 3 119.353021 2 -180.000000 0
C  5 1.393108 2 119.030885 1 -180.000000 0
H  9 1.081333 5 119.353021 2 -180.000000 0
C  7 1.393193 3 120.462865 2 -0.000000 0
H  11 1.080810 7 120.124060 3 -180.000000 0
$end


 --------------------------------------------------------------
             Orbital Energies (a.u.) and Symmetries
 --------------------------------------------------------------

 Alpha MOs, Restricted
 -- Occupied --                  
-490.02  -65.16  -58.52  -58.52  -58.52  -11.30  -11.25  -11.25
  1 A1    2 A1    3 A1    1 B2    1 B1    4 A1    2 B1    5 A1                 
-11.249 -11.249 -11.246  -9.836  -7.447  -7.441  -7.441  -3.191
  6 A1    3 B1    7 A1    8 A1    9 A1    2 B2    4 B1   10 A1                 
 -3.188  -3.187  -3.179  -3.179  -1.175  -1.073  -1.032  -0.974
  3 B2    5 B1    1 A2   11 A1   12 A1   13 A1    6 B1   14 A1                 
 -0.845  -0.817  -0.710  -0.644  -0.644  -0.604  -0.575  -0.533
  7 B1   15 A1   16 A1    8 B1   17 A1    9 B1   18 A1    4 B2                 
 -0.515  -0.493  -0.439  -0.416  -0.352  -0.333
 10 B1   19 A1    5 B2   11 B1    2 A2    6 B2                                 
 -- Virtual --                   
  0.112   0.113   0.133   0.164   0.165   0.179   0.204   0.206
  7 B2    3 A2   20 A1   21 A1   12 B1   22 A1   23 A1   13 B1                 
  0.305   0.314   0.324   0.373   0.375   0.393   0.394   0.404
  8 B2   24 A1   14 B1   15 B1   25 A1   26 A1    9 B2   16 B1                 
  0.409   0.431   0.455   0.458   0.475   0.477   0.497   0.510
 27 A1   10 B2    4 A2   17 B1   11 B2   28 A1   29 A1   18 B1                 
  0.519   0.545   0.549   0.566   0.575   0.578   0.581   0.588
  5 A2   30 A1   31 A1   12 B2   13 B2   19 B1   32 A1   20 B1                 
  0.596   0.613   0.637   0.638   0.664   0.671   0.676   0.720
  6 A2   33 A1   34 A1   21 B1   14 B2   22 B1   35 A1   23 B1                 
  0.722   0.752   0.758   0.791   0.800   0.837   0.847   0.872
 36 A1   15 B2   37 A1   24 B1   38 A1    7 A2    8 A2   25 B1                 
  0.908   0.911   0.921   0.942   0.950   0.979   0.991   1.019
 16 B2   39 A1   26 B1   40 A1    9 A2   27 B1   41 A1   28 B1                 
  1.043   1.046   1.077   1.087   1.114   1.164   1.199   1.202
 17 B2   42 A1   43 A1   29 B1   44 A1   18 B2   10 A2   19 B2                 
  1.230   1.242   1.249   1.278   1.291   1.325   1.363   1.372
 45 A1   30 B1   20 B2   11 A2   46 A1   47 A1   31 B1   48 A1                 
  1.374   1.435   1.477   1.478   1.486   1.494   1.504   1.516
 32 B1   21 B2   12 A2   49 A1   33 B1   34 B1   35 B1   22 B2                 
  1.542   1.564   1.575   1.601   1.613   1.631   1.678   1.703
 50 A1   36 B1   13 A2   51 A1   37 B1   52 A1   53 A1   23 B2                 
  1.711   1.718   1.732   1.759   1.780   1.839   1.875   1.881
 38 B1   14 A2   54 A1   39 B1   24 B2   55 A1   40 B1   56 A1                 
  1.939   1.961   2.006   2.065   2.083   2.094   2.102   2.132
 15 A2   25 B2   57 A1   16 A2   26 B2   58 A1   41 B1   42 B1                 
  2.179   2.193   2.206   2.243   2.287   2.302   2.324   2.328
 59 A1   60 A1   43 B1   27 B2   61 A1   44 B1   62 A1   28 B2                 
  2.385   2.439   2.448   2.464   2.532   2.538   2.542   2.590
 45 B1   17 A2   63 A1   29 B2   46 B1   30 B2   18 A2   64 A1                 
  2.626   2.629   2.668   2.712   2.731   2.768   2.769   2.815
 47 B1   19 A2   65 A1   66 A1   48 B1   49 B1   67 A1   31 B2                 
  2.821   2.834   2.904   2.944   2.945   2.977   2.993   3.004
 68 A1   32 B2   50 B1   20 A2   33 B2   51 B1   34 B2   69 A1                 
  3.010   3.028   3.041   3.044   3.058   3.107   3.133   3.149
 35 B2   70 A1   21 A2   52 B1   22 A2   71 A1   36 B2   72 A1                 
  3.159   3.214   3.220   3.257   3.259   3.309   3.321   3.339
 53 B1   37 B2   23 A2   38 B2   73 A1   54 B1   74 A1   55 B1                 
  3.342   3.366   3.373   3.378   3.409   3.423   3.426   3.428
 75 A1   24 A2   56 B1   76 A1   77 A1   78 A1   25 A2   57 B1                 
  3.430   3.440   3.444   3.456   3.479   3.534   3.580   3.613
 58 B1   79 A1   39 B2   26 A2   40 B2   59 B1   80 A1   41 B2                 
  3.620   3.637   3.652   3.663   3.674   3.681   3.717   3.727
 81 A1   27 A2   42 B2   60 B1   28 A2   61 B1   62 B1   43 B2                 
  3.747   3.785   3.866   3.913   3.947   3.957   3.970   3.979
 82 A1   29 A2   83 A1   84 A1   44 B2   63 B1   30 A2   85 A1                 
  4.070   4.090   4.093   4.114   4.117   4.120   4.135   4.142
 31 A2   45 B2   86 A1   64 B1   87 A1   65 B1   46 B2   32 A2                 
  4.152   4.172   4.188   4.193   4.227   4.295   4.359   4.363
 66 B1   47 B2   88 A1   33 A2   67 B1   89 A1   68 B1   48 B2                 
  4.404   4.427   4.446   4.480   4.488   4.489   4.503   4.526
 34 A2   90 A1   69 B1   91 A1   49 B2   70 B1   92 A1   71 B1                 
  4.573   4.608   4.647   4.653   4.655   4.668   4.669   4.691
 93 A1   35 A2   36 A2   50 B2   94 A1   72 B1   95 A1   51 B2                 
  4.696   4.779   4.781   4.878   4.989   5.023   5.039   5.052
 73 B1   96 A1   97 A1   74 B1   98 A1   52 B2   99 A1   53 B2                 
  5.056   5.094   5.101   5.129   5.209   5.235   5.302   5.338
 75 B1   76 B1   37 A2   38 A2  100 A1   54 B2   77 B1  101 A1                 
  5.365   5.373   5.438   5.484   5.514   5.579   5.717   5.901
 39 A2   78 B1  102 A1  103 A1   79 B1   80 B1   55 B2   81 B1                 
  5.907   5.999   6.074   6.265   6.288   6.410   6.453   6.743
104 A1  105 A1  106 A1   82 B1   83 B1   84 B1  107 A1  108 A1                 
  7.156   9.026  12.495  13.113  13.441  13.717  16.053
 85 B1  109 A1  110 A1   86 B1  111 A1   87 B1  112 A1                         

 Beta MOs, Restricted
 -- Occupied --                  
-490.02  -65.16  -58.52  -58.52  -58.52  -11.30  -11.25  -11.25
  1 A1    2 A1    3 A1    1 B2    1 B1    4 A1    2 B1    5 A1                 
-11.249 -11.249 -11.246  -9.836  -7.447  -7.441  -7.441  -3.191
  6 A1    3 B1    7 A1    8 A1    9 A1    2 B2    4 B1   10 A1                 
 -3.188  -3.187  -3.179  -3.179  -1.175  -1.073  -1.032  -0.974
  3 B2    5 B1    1 A2   11 A1   12 A1   13 A1    6 B1   14 A1                 
 -0.845  -0.817  -0.710  -0.644  -0.644  -0.604  -0.575  -0.533
  7 B1   15 A1   16 A1    8 B1   17 A1    9 B1   18 A1    4 B2                 
 -0.515  -0.493  -0.439  -0.416  -0.352  -0.333
 10 B1   19 A1    5 B2   11 B1    2 A2    6 B2                                 
 -- Virtual --                   
  0.112   0.113   0.133   0.164   0.165   0.179   0.204   0.206
  7 B2    3 A2   20 A1   21 A1   12 B1   22 A1   23 A1   13 B1                 
  0.305   0.314   0.324   0.373   0.375   0.393   0.394   0.404
  8 B2   24 A1   14 B1   15 B1   25 A1   26 A1    9 B2   16 B1                 
  0.409   0.431   0.455   0.458   0.475   0.477   0.497   0.510
 27 A1   10 B2    4 A2   17 B1   11 B2   28 A1   29 A1   18 B1                 
  0.519   0.545   0.549   0.566   0.575   0.578   0.581   0.588
  5 A2   30 A1   31 A1   12 B2   13 B2   19 B1   32 A1   20 B1                 
  0.596   0.613   0.637   0.638   0.664   0.671   0.676   0.720
  6 A2   33 A1   34 A1   21 B1   14 B2   22 B1   35 A1   23 B1                 
  0.722   0.752   0.758   0.791   0.800   0.837   0.847   0.872
 36 A1   15 B2   37 A1   24 B1   38 A1    7 A2    8 A2   25 B1                 
  0.908   0.911   0.921   0.942   0.950   0.979   0.991   1.019
 16 B2   39 A1   26 B1   40 A1    9 A2   27 B1   41 A1   28 B1                 
  1.043   1.046   1.077   1.087   1.114   1.164   1.199   1.202
 17 B2   42 A1   43 A1   29 B1   44 A1   18 B2   10 A2   19 B2                 
  1.230   1.242   1.249   1.278   1.291   1.325   1.363   1.372
 45 A1   30 B1   20 B2   11 A2   46 A1   47 A1   31 B1   48 A1                 
  1.374   1.435   1.477   1.478   1.486   1.494   1.504   1.516
 32 B1   21 B2   12 A2   49 A1   33 B1   34 B1   35 B1   22 B2                 
  1.542   1.564   1.575   1.601   1.613   1.631   1.678   1.703
 50 A1   36 B1   13 A2   51 A1   37 B1   52 A1   53 A1   23 B2                 
  1.711   1.718   1.732   1.759   1.780   1.839   1.875   1.881
 38 B1   14 A2   54 A1   39 B1   24 B2   55 A1   40 B1   56 A1                 
  1.939   1.961   2.006   2.065   2.083   2.094   2.102   2.132
 15 A2   25 B2   57 A1   16 A2   26 B2   58 A1   41 B1   42 B1                 
  2.179   2.193   2.206   2.243   2.287   2.302   2.324   2.328
 59 A1   60 A1   43 B1   27 B2   61 A1   44 B1   62 A1   28 B2                 
  2.385   2.439   2.448   2.464   2.532   2.538   2.542   2.590
 45 B1   17 A2   63 A1   29 B2   46 B1   30 B2   18 A2   64 A1                 
  2.626   2.629   2.668   2.712   2.731   2.768   2.769   2.815
 47 B1   19 A2   65 A1   66 A1   48 B1   49 B1   67 A1   31 B2                 
  2.821   2.834   2.904   2.944   2.945   2.977   2.993   3.004
 68 A1   32 B2   50 B1   20 A2   33 B2   51 B1   34 B2   69 A1                 
  3.010   3.028   3.041   3.044   3.058   3.107   3.133   3.149
 35 B2   70 A1   21 A2   52 B1   22 A2   71 A1   36 B2   72 A1                 
  3.159   3.214   3.220   3.257   3.259   3.309   3.321   3.339
 53 B1   37 B2   23 A2   38 B2   73 A1   54 B1   74 A1   55 B1                 
  3.342   3.366   3.373   3.378   3.409   3.423   3.426   3.428
 75 A1   24 A2   56 B1   76 A1   77 A1   78 A1   25 A2   57 B1                 
  3.430   3.440   3.444   3.456   3.479   3.534   3.580   3.613
 58 B1   79 A1   39 B2   26 A2   40 B2   59 B1   80 A1   41 B2                 
  3.620   3.637   3.652   3.663   3.674   3.681   3.717   3.727
 81 A1   27 A2   42 B2   60 B1   28 A2   61 B1   62 B1   43 B2                 
  3.747   3.785   3.866   3.913   3.947   3.957   3.970   3.979
 82 A1   29 A2   83 A1   84 A1   44 B2   63 B1   30 A2   85 A1                 
  4.070   4.090   4.093   4.114   4.117   4.120   4.135   4.142
 31 A2   45 B2   86 A1   64 B1   87 A1   65 B1   46 B2   32 A2                 
  4.152   4.172   4.188   4.193   4.227   4.295   4.359   4.363
 66 B1   47 B2   88 A1   33 A2   67 B1   89 A1   68 B1   48 B2                 
  4.404   4.427   4.446   4.480   4.488   4.489   4.503   4.526
 34 A2   90 A1   69 B1   91 A1   49 B2   70 B1   92 A1   71 B1                 
  4.573   4.608   4.647   4.653   4.655   4.668   4.669   4.691
 93 A1   35 A2   36 A2   50 B2   94 A1   72 B1   95 A1   51 B2                 
  4.696   4.779   4.781   4.878   4.989   5.023   5.039   5.052
 73 B1   96 A1   97 A1   74 B1   98 A1   52 B2   99 A1   53 B2                 
  5.056   5.094   5.101   5.129   5.209   5.235   5.302   5.338
 75 B1   76 B1   37 A2   38 A2  100 A1   54 B2   77 B1  101 A1                 
  5.365   5.373   5.438   5.484   5.514   5.579   5.717   5.901
 39 A2   78 B1  102 A1  103 A1   79 B1   80 B1   55 B2   81 B1                 
  5.907   5.999   6.074   6.265   6.288   6.410   6.453   6.743
104 A1  105 A1  106 A1   82 B1   83 B1   84 B1  107 A1  108 A1                 
  7.156   9.026  12.495  13.113  13.441  13.717  16.053
 85 B1  109 A1  110 A1   86 B1  111 A1   87 B1  112 A1                         
 --------------------------------------------------------------

          Ground-State Mulliken Net Atomic Charges

     Atom                 Charge (a.u.)
  ----------------------------------------
      1 H                     0.169477
      2 C                    -0.185744
      3 C                    -0.123653
      4 H                     0.158210
      5 C                    -0.168031
      6 H                     0.157899
      7 C                    -0.123653
      8 H                     0.158210
      9 C                    -0.185744
     10 H                     0.169477
     11 C                     0.059310
     12 Br                   -0.085758
  ----------------------------------------
  Sum of atomic charges =    -0.000000

 -----------------------------------------------------------------
                    Cartesian Multipole Moments
 -----------------------------------------------------------------
    Charge (ESU x 10^10)
                 0.0000
    Dipole Moment (Debye)
         X      -0.0000      Y      -0.0000      Z      -1.7187
       Tot       1.7187
    Quadrupole Moments (Debye-Ang)
        XX     -48.6722     XY      -0.0000     YY     -57.4687
        XZ      -0.0000     YZ      -0.0000     ZZ     -50.3676
    Octopole Moments (Debye-Ang^2)
       XXX      -0.0000    XXY      -0.0000    XYY      -0.0000
       YYY      -0.0000    XXZ      -1.9897    XYZ       0.0000
       YYZ       8.4297    XZZ       0.0000    YZZ      -0.0000
       ZZZ       0.3078
    Hexadecapole Moments (Debye-Ang^3)
      XXXX    -288.7840   XXXY       0.0000   XXYY     -70.4253
      XYYY       0.0000   YYYY     -67.6151   XXXZ      -0.0000
      XXYZ      -0.0000   XYYZ       0.0000   YYYZ      -0.0000
      XXZZ    -222.0033   XYZZ      -0.0000   YYZZ    -206.9365
      XZZZ      -0.0000   YZZZ       0.0000   ZZZZ    -997.1784
 -----------------------------------------------------------------
Archival summary:
1\1\node8\OPT\ProcedureUnspecified\BasisUnspecified\r165\krylov\MonSep2419:19:552018MonSep2419:19:552018\0\\#,OPT,ProcedureUnspecified,BasisUnspecified,\\0,1\Br\C,1,1.884\C,2,1.3922,1,119.37\H,3,1.0802,2,120.072,1,-0,0\C,2,1.3922,1,119.37,3,-180,0\H,5,1.0802,2,120.072,1,-0,0\C,3,1.39311,2,119.031,1,-180,0\H,7,1.08133,3,119.353,2,-180,0\C,5,1.39311,2,119.031,1,-180,0\H,9,1.08133,5,119.353,2,-180,0\C,7,1.39319,3,120.463,2,-0,0\H,11,1.08081,7,120.124,3,-180,0\\HF=-2802.65644\\@

 Total job time:  18418.08s(wall), 73299.78s(cpu) 
 Mon Sep 24 19:19:55 2018

        *************************************************************
        *                                                           *
        *  Thank you very much for using Q-Chem.  Have a nice day.  *
        *                                                           *
        *************************************************************


