Q-Chem Developer Version!
                  Welcome to Q-Chem
     A Quantum Leap Into The Future Of Chemistry


 Q-Chem 5.1, Q-Chem, Inc., Pleasanton, CA (2018)

 Yihan Shao,  Zhengting Gan,  E. Epifanovsky,  A. T. B. Gilbert,  M. Wormit,  
 J. Kussmann,  A. W. Lange,  A. Behn,  Jia Deng,  Xintian Feng,  D. Ghosh,  
 M. Goldey,  P. R. Horn,  L. D. Jacobson,  I. Kaliman,  T. Kus,  A. Landau,  
 Jie Liu,  E. I. Proynov,  R. M. Richard,  R. P. Steele,  E. J. Sundstrom,  
 H. L. Woodcock III,  P. M. Zimmerman,  D. Zuev,  B. Albrecht,  E. Alguire,  
 S. A. Baeppler,  D. Barton,  Z. Benda,  Y. A. Bernard,  E. J. Berquist,  
 K. B. Bravaya,  H. Burton,  D. Casanova,  Chun-Min Chang,  Yunqing Chen,  
 A. Chien,  K. D. Closser,  M. P. Coons,  S. Coriani,  S. Dasgupta,  
 A. L. Dempwolff,  M. Diedenhofen,  Hainam Do,  R. G. Edgar,  Po-Tung Fang,  
 S. Faraji,  S. Fatehi,  Qingguo Feng,  K. D. Fenk,  J. Fosso-Tande,  
 Qinghui Ge,  A. Ghysels,  G. Gidofalvi,  J. Gomes,  J. Gonthier,  A. Gunina,  
 D. Hait,  M. W. D. Hanson-Heine,  P. H. P. Harbach,  A. W. Hauser,  
 J. E. Herr,  E. G. Hohenstein,  Z. C. Holden,  Kerwin Hui,  B. C. Huynh,  
 T.-C. Jagau,  Hyunjun Ji,  B. Kaduk,  K. Khistyaev,  Jaehoon Kim,  
 P. Klunzinger,  K. Koh,  D. Kosenkov,  L. Koulias,  T. Kowalczyk,  
 C. M. Krauter,  A. Kunitsa,  Ka Un Lao,  A. Laurent,  K. V. Lawler,  
 Joonho Lee,  D. Lefrancois,  S. Lehtola,  D. S. Levine,  Yi-Pei Li,  
 You-Sheng Lin,  Fenglai Liu,  E. Livshits,  A. Luenser,  P. Manohar,  
 E. Mansoor,  S. F. Manzer,  Shan-Ping Mao,  Yuezhi Mao,  N. Mardirossian,  
 A. V. Marenich,  T. Markovich,  L. A. Martinez-Martinez,  S. A. Maurer,  
 N. J. Mayhall,  S. C. McKenzie,  J.-M. Mewes,  A. F. Morrison,  
 J. W. Mullinax,  K. Nanda,  T. S. Nguyen-Beck,  R. Olivares-Amaya,  
 J. A. Parkhill,  T. M. Perrine,  F. Plasser,  P. Pokhilko,  S. Prager,  
 A. Prociuk,  E. Ramos,  D. R. Rehn,  F. Rob,  M. Schneider,  N. Sergueev,  
 S. M. Sharada,  S. Sharma,  D. W. Small,  T. Stauch,  T. Stein,  
 Yu-Chuan Su,  A. J. W. Thom,  A. Tkatchenko,  T. Tsuchimochi,  N. M. Tubman,  
 L. Vogt,  M. L. Vidal,  O. Vydrov,  M. A. Watson,  J. Wenzel,  
 M. de Wergifosse,  T. A. Wesolowski,  A. White,  J. Witte,  A. Yamada,  
 Jun Yang,  K. Yao,  S. Yeganeh,  S. R. Yost,  Zhi-Qiang You,  A. Zech,  
 Igor Ying Zhang,  Xing Zhang,  Yan Zhao,  Ying Zhu,  B. R. Brooks,  
 G. K. L. Chan,  C. J. Cramer,  M. S. Gordon,  W. J. Hehre,  A. Klamt,  
 M. W. Schmidt,  C. D. Sherrill,  D. G. Truhlar,  A. Aspuru-Guzik,  R. Baer,  
 A. T. Bell,  N. A. Besley,  Jeng-Da Chai,  A. E. DePrince, III,  
 R. A. DiStasio Jr.,  A. Dreuw,  B. D. Dunietz,  T. R. Furlani,  
 Chao-Ping Hsu,  Yousung Jung,  Jing Kong,  D. S. Lambrecht,  WanZhen Liang,  
 C. Ochsenfeld,  V. A. Rassolov,  L. V. Slipchenko,  J. E. Subotnik,  
 T. Van Voorhis,  J. M. Herbert,  A. I. Krylov,  P. M. W. Gill,  M. Head-Gordon

 Contributors to earlier versions of Q-Chem not listed above: 
 R. D. Adamson,  B. Austin,  J. Baker,  G. J. O. Beran,  K. Brandhorst,  
 S. T. Brown,  E. F. C. Byrd,  A. K. Chakraborty,  C.-L. Cheng,  
 Siu Hung Chien,  D. M. Chipman,  D. L. Crittenden,  H. Dachsel,  
 R. J. Doerksen,  A. D. Dutoi,  L. Fusti-Molnar,  W. A. Goddard III,  
 A. Golubeva-Zadorozhnaya,  S. R. Gwaltney,  G. Hawkins,  A. Heyden,  
 S. Hirata,  G. Kedziora,  F. J. Keil,  C. Kelley,  Jihan Kim,  R. A. King,  
 R. Z. Khaliullin,  P. P. Korambath,  W. Kurlancheek,  A. M. Lee,  M. S. Lee,  
 S. V. Levchenko,  Ching Yeh Lin,  D. Liotard,  R. C. Lochan,  I. Lotan,  
 P. E. Maslen,  N. Nair,  D. P. O'Neill,  D. Neuhauser,  E. Neuscamman,  
 C. M. Oana,  R. Olson,  B. Peters,  R. Peverati,  P. A. Pieniazek,  
 Y. M. Rhee,  J. Ritchie,  M. A. Rohrdanz,  E. Rosta,  N. J. Russ,  
 H. F. Schaefer III,  N. E. Schultz,  N. Shenvi,  A. C. Simmonett,  A. Sodt,  
 D. Stuck,  K. S. Thanthiriwatte,  V. Vanovschi,  Tao Wang,  A. Warshel,  
 C. F. Williams,  Q. Wu,  X. Xu,  W. Zhang

 Please cite Q-Chem as follows:
 Y. Shao et al., Mol. Phys. 113, 184-215 (2015)
 DOI: 10.1080/00268976.2014.952696

 Q-Chem 5.1.1 for Intel X86 EM64T Linux

 Parts of Q-Chem use Armadillo 8.300.2 (Tropical Shenanigans).
 http://arma.sourceforge.net/

 Q-Chem begins on Fri Sep 28 03:22:42 2018  

node20
Host: 0

     Scratch files written to /scratch/krylov/qchem9460//
Core orbitals will be frozen
Input Ideriv = 1
Curr. Ideriv = -1
Max.  Ideriv = 1
EOM-IP/EA analytic gradients are available only for UHF references
Setting UNRESTRICTED=TRUE

Checking the input file for inconsistencies... 	...done.

--------------------------------------------------------------
User input:
--------------------------------------------------------------
$molecule
0 1
H        -2.1400320233    0.0000000000   -0.1495480158
C        -1.2120583232    0.0000000000   -0.7028148658
C        -1.2042956497    0.0000000000   -2.0947016297
H        -2.1437187877    0.0000000000   -2.6302428250
C         0.0000000000    0.0000000000   -2.7936988293
H         0.0000000000    0.0000000000   -3.8745528350
C         1.2042956497    0.0000000000   -2.0947016297
H         2.1437187877    0.0000000000   -2.6302428250
C         1.2120583232    0.0000000000   -0.7028148658
H         2.1400320233    0.0000000000   -0.1495480158
C         0.0000000000    0.0000000000   -0.0199042774
Br        0.0000000000    0.0000000000    1.7110271744
$end

$rem
   BASIS  = cc-pVTZ
   JOB_TYPE  =  OPT
   METHOD  =  EOM-CCSD
   SCF_CONVERGENCE  =  8
   IP_STATES = [0,1,0,0]
   CC_STATE_TO_OPT = [2,1]
   CC_MEMORY = 80000   
! use SP code 
  cc_single_prec=1
  eom_single_prec=1
  cc_sp_dm = 1
  cc_sp_t_conv = 4
  cc_sp_e_conv = 6
  cc_erase_dp_integrals = 1
$end

--------------------------------------------------------------
 ----------------------------------------------------------------
             Standard Nuclear Orientation (Angstroms)
    I     Atom           X                Y                Z
 ----------------------------------------------------------------
    1      H      -2.1400320233    -0.0000000000    -0.1495480158
    2      C      -1.2120583232     0.0000000000    -0.7028148658
    3      C      -1.2042956497     0.0000000000    -2.0947016297
    4      H      -2.1437187877     0.0000000000    -2.6302428250
    5      C      -0.0000000000     0.0000000000    -2.7936988293
    6      H      -0.0000000000     0.0000000000    -3.8745528350
    7      C       1.2042956497     0.0000000000    -2.0947016297
    8      H       2.1437187877     0.0000000000    -2.6302428250
    9      C       1.2120583232     0.0000000000    -0.7028148658
   10      H       2.1400320233     0.0000000000    -0.1495480158
   11      C      -0.0000000000     0.0000000000    -0.0199042774
   12      Br      0.0000000000    -0.0000000000     1.7110271744
 ----------------------------------------------------------------
 Molecular Point Group                 C2v   NOp =  4
 Largest Abelian Subgroup              C2v   NOp =  4
 Nuclear Repulsion Energy =   445.4223579121 hartrees
 There are       38 alpha and       38 beta electrons
 Requested basis set is cc-pVTZ
 There are 105 shells and 293 basis functions
MEM_TOTAL is adjusted to CC_MEMORY + MEM_STATIC!
 Total memory of 80192MB is distributed as follows: 
   QALLOC including MEM_STATIC uses 192MB
   MEM_STATIC is set to 192MB
   CCMAN JOB total memory use is  80000MB
 Warning: actual memory use might exceed 80192MB

 Total QAlloc Memory Limit    192 MB
 Mega-Array Size       188 MB
 MEM_STATIC part       192 MB
 A cutoff of  1.0D-14 yielded   5246 shell pairs
 There are     41386 function pairs (     54043 Cartesian)

 -------------------------------------------------------
 OpenMP Integral Computing Module                       
 Release: version 1.0, May 2013, Q-Chem Inc. Pittsburgh 
 -------------------------------------------------------
 Integral Job Info:
 Integral job number is                      11
 Integral operator is                         1
 short-range coefficients                     0
 long-range coefficients              100000000
 Omega coefficients                           0
 if combine SR and LR in K                    0
 Integral screening is                        0
 Integral computing path is                   2
 max size of driver memory is            800000
 size of driver memory is                776718
 size of scratch memory is             26991800
 max col of scratch BK array              10000
 max len of scratch array in speh3          662
 max len of scratch index in speh4           32
 max int batch size is                      520
 min int batch size is                       52
 fixed nKL is                                 4
 max L of basis functions is                  3
 order of int derivative is                   0
 number of shells is                        105
 number of basis is                         334
 number of cartesian basis is               334
 number of contracted shell pairs          5246
 number of primitive shell pairs          24958
 maxK2 (contraction) of shell pair          225
 max number of K2 of shell pair               1
 max number of CS2 of shell pair            620
 max number of PS2 of shell pair           2250
 mem total for path MDJ                  651800
 -------------------------------------------------------
 Smallest overlap matrix eigenvalue = 3.45E-05

 Scale SEOQF with 1.000000e-01/1.000000e+00/1.000000e-01

 Standard Electronic Orientation quadrupole field applied
 Nucleus-field energy     =    -0.0000000235 hartrees
 Guess from superposition of atomic densities
 Warning:  Energy on first SCF cycle will be non-variational
 SAD guess density has 76.000000 electrons

 -----------------------------------------------------------------------
  General SCF calculation program by
  Eric Jon Sundstrom, Paul Horn, Yuezhi Mao, Dmitri Zuev, Alec White,
  David Stuck, Shaama M.S., Shane Yost, Joonho Lee, David Small,
  Daniel Levine, Susi Lehtola, Hugh Burton, Evgeny Epifanovsky
 -----------------------------------------------------------------------
 Hartree-Fock
 using 8 threads for integral computing
 -------------------------------------------------------
 OpenMP Integral computing Module                
 Release: version 2.0, May 2017, Q-Chem Inc. Pleasanton 
 -------------------------------------------------------
 A unrestricted SCF calculation will be
 performed using DIIS
 SCF converges when DIIS error is below 1.0e-08
 ---------------------------------------
  Cycle       Energy         DIIS error
 ---------------------------------------
    1   -2805.6797658476      1.72e-02  
    2   -2802.5644588848      1.11e-03  
    3   -2802.6308866648      4.71e-04  
    4   -2802.6394627206      2.26e-04  
    5   -2802.6421114701      4.18e-05  
    6   -2802.6422082815      1.19e-05  
    7   -2802.6422231956      4.13e-06  
    8   -2802.6422255187      1.70e-06  
    9   -2802.6422259980      6.90e-07  
   10   -2802.6422260770      3.26e-07  
   11   -2802.6422261099      1.22e-07  
   12   -2802.6422261126      3.54e-08  
   13   -2802.6422261120      7.26e-09  Convergence criterion met
 ---------------------------------------
 SCF time:   CPU 1370.60s  wall 173.00s 
<S^2> =          0.000000000
 SCF   energy in the final basis set =    -2802.6422261120
 Total energy in the final basis set =    -2802.6422261120


 ------------------------------------------------------------------------------

   CCMAN2: suite of methods based on coupled cluster
           and equation of motion theories.

   Components:
   * libvmm-1.3-trunk
     by Evgeny Epifanovsky, Ilya Kaliman.
   * libtensor-2.5-trunk
     by Evgeny Epifanovsky, Michael Wormit, Dmitry Zuev, Sam Manzer, 
        Ilya Kaliman.
   * libcc-2.5-trunk
     by Evgeny Epifanovsky, Arik Landau, Tomasz Kus, Kirill Khistyaev, 
        Dmitry Zuev, Prashant Manohar, Xintian Feng, Anna Krylov, 
        Matthew Goldey, Alec White, Thomas Jagau, Kaushik Nanda, 
        Anastasia Gunina, Alexander Kunitsa, Joonho Lee.

   CCMAN original authors:
   Anna I. Krylov, C. David Sherrill, Steven R. Gwaltney,
   Edward F. C. Byrd (2000)
   Sergey V. Levchenko, Lyudmila V. Slipchenko, Tao Wang,
   Ana-Maria C. Cristian (2003)
   Piotr A. Pieniazek, C. Melania Oana, Evgeny Epifanovsky (2007)
   Prashant Manohar (2009)

 ------------------------------------------------------------------------------


 Allocating and initializing 80000MB of RAM...
 Calculation will run on 8 cores.


 Alpha MOs, Unrestricted
 -- Occupied --                  
-490.02  -65.16  -58.52  -58.52  -58.52  -11.29  -11.25  -11.25
  1 A1    2 A1    3 A1    1 B2    1 B1    4 A1    5 A1    2 B1                 
-11.245 -11.245 -11.242  -9.838  -7.451  -7.444  -7.443  -3.194
  6 A1    3 B1    7 A1    8 A1    9 A1    2 B2    4 B1   10 A1                 
 -3.190  -3.190  -3.182  -3.182  -1.185  -1.097  -1.029  -0.971
  3 B2    5 B1    1 A2   11 A1   12 A1   13 A1    6 B1   14 A1                 
 -0.846  -0.812  -0.708  -0.646  -0.645  -0.601  -0.582  -0.541
  7 B1   15 A1   16 A1    8 B1   17 A1    9 B1   18 A1    4 B2                 
 -0.513  -0.503  -0.448  -0.415  -0.350  -0.321
 10 B1   19 A1    5 B2   11 B1    2 A2    6 B2                                 
 -- Virtual --                   
  0.113   0.114   0.140   0.166   0.174   0.191   0.205   0.208
  7 B2    3 A2   20 A1   12 B1   21 A1   22 A1   23 A1   13 B1                 
  0.300   0.312   0.316   0.375   0.386   0.394   0.397   0.412
  8 B2   24 A1   14 B1   15 B1   25 A1   26 A1    9 B2   16 B1                 
  0.421   0.435   0.453   0.468   0.475   0.484   0.500   0.512
 27 A1   10 B2    4 A2   17 B1   28 A1   11 B2   29 A1   18 B1                 
  0.516   0.547   0.556   0.566   0.579   0.580   0.587   0.591
  5 A2   30 A1   31 A1   12 B2   19 B1   13 B2   32 A1   20 B1                 
  0.598   0.616   0.640   0.645   0.670   0.675   0.684   0.724
  6 A2   33 A1   21 B1   34 A1   14 B2   22 B1   35 A1   23 B1                 
  0.727   0.762   0.765   0.800   0.806   0.844   0.849   0.869
 36 A1   15 B2   37 A1   38 A1   24 B1    7 A2    8 A2   25 B1                 
  0.917   0.919   0.921   0.955   0.962   0.991   0.998   1.020
 16 B2   26 B1   39 A1    9 A2   40 A1   27 B1   41 A1   28 B1                 
  1.056   1.057   1.093   1.103   1.111   1.171   1.197   1.205
 17 B2   42 A1   29 B1   43 A1   44 A1   18 B2   10 A2   19 B2                 
  1.227   1.249   1.259   1.280   1.288   1.329   1.375   1.376
 45 A1   30 B1   20 B2   11 A2   46 A1   47 A1   31 B1   48 A1                 
  1.378   1.442   1.477   1.477   1.483   1.498   1.512   1.526
 32 B1   21 B2   49 A1   12 A2   33 B1   34 B1   35 B1   22 B2                 
  1.547   1.570   1.578   1.602   1.616   1.634   1.674   1.714
 50 A1   36 B1   13 A2   51 A1   37 B1   52 A1   53 A1   23 B2                 
  1.719   1.725   1.731   1.755   1.780   1.881   1.914   1.917
 38 B1   14 A2   54 A1   39 B1   24 B2   55 A1   56 A1   40 B1                 
  1.967   1.977   2.054   2.070   2.103   2.107   2.108   2.142
 15 A2   25 B2   57 A1   16 A2   26 B2   58 A1   41 B1   42 B1                 
  2.187   2.203   2.206   2.259   2.305   2.330   2.336   2.343
 59 A1   43 B1   60 A1   27 B2   61 A1   62 A1   44 B1   28 B2                 
  2.415   2.443   2.461   2.480   2.549   2.556   2.573   2.595
 45 B1   17 A2   63 A1   29 B2   18 A2   30 B2   46 B1   64 A1                 
  2.655   2.657   2.676   2.742   2.743   2.766   2.775   2.829
 19 A2   47 B1   65 A1   66 A1   48 B1   67 A1   49 B1   31 B2                 
  2.843   2.843   2.911   2.948   2.950   2.998   2.998   3.007
 32 B2   68 A1   50 B1   33 B2   20 A2   34 B2   69 A1   51 B1                 
  3.018   3.042   3.047   3.065   3.078   3.112   3.154   3.168
 35 B2   70 A1   21 A2   52 B1   22 A2   71 A1   72 A1   53 B1                 
  3.192   3.218   3.225   3.262   3.278   3.315   3.325   3.347
 36 B2   37 B2   23 A2   38 B2   73 A1   54 B1   74 A1   55 B1                 
  3.370   3.375   3.391   3.393   3.415   3.429   3.437   3.440
 24 A2   56 B1   75 A1   76 A1   77 A1   25 A2   57 B1   78 A1                 
  3.458   3.459   3.465   3.480   3.498   3.531   3.629   3.631
 79 A1   26 A2   58 B1   39 B2   40 B2   59 B1   80 A1   41 B2                 
  3.639   3.649   3.650   3.667   3.679   3.686   3.727   3.729
 27 A2   81 A1   42 B2   60 B1   28 A2   61 B1   43 B2   62 B1                 
  3.759   3.788   3.895   3.925   3.966   3.975   3.980   3.991
 82 A1   29 A2   83 A1   84 A1   63 B1   44 B2   30 A2   85 A1                 
  4.072   4.094   4.104   4.118   4.125   4.140   4.144   4.145
 31 A2   45 B2   86 A1   64 B1   65 B1   46 B2   32 A2   87 A1                 
  4.168   4.181   4.196   4.204   4.244   4.312   4.368   4.373
 66 B1   47 B2   33 A2   88 A1   67 B1   89 A1   68 B1   48 B2                 
  4.407   4.434   4.452   4.493   4.499   4.510   4.515   4.536
 34 A2   90 A1   69 B1   49 B2   70 B1   91 A1   92 A1   71 B1                 
  4.589   4.612   4.653   4.659   4.670   4.672   4.694   4.695
 93 A1   35 A2   36 A2   50 B2   94 A1   72 B1   95 A1   51 B2                 
  4.701   4.796   4.884   4.982   5.028   5.034   5.056   5.079
 73 B1   96 A1   74 B1   97 A1   52 B2   98 A1   53 B2   75 B1                 
  5.100   5.107   5.135   5.139   5.241   5.283   5.312   5.349
 76 B1   37 A2   38 A2   99 A1   54 B2  100 A1   77 B1  101 A1                 
  5.369   5.381   5.442   5.491   5.522   5.589   5.726   5.908
 39 A2   78 B1  102 A1  103 A1   79 B1   80 B1   55 B2   81 B1                 
  5.921   6.033   6.079   6.280   6.302   6.423   6.462   6.757
104 A1  105 A1  106 A1   82 B1   83 B1   84 B1  107 A1  108 A1                 
  7.180   9.033  12.559  13.210  13.467  13.805  16.116
 85 B1  109 A1  110 A1   86 B1  111 A1   87 B1  112 A1                         

 Beta MOs, Unrestricted
 -- Occupied --                  
-490.02  -65.16  -58.52  -58.52  -58.52  -11.29  -11.25  -11.25
  1 A1    2 A1    3 A1    1 B2    1 B1    4 A1    5 A1    2 B1                 
-11.245 -11.245 -11.242  -9.838  -7.451  -7.444  -7.443  -3.194
  6 A1    3 B1    7 A1    8 A1    9 A1    2 B2    4 B1   10 A1                 
 -3.190  -3.190  -3.182  -3.182  -1.185  -1.097  -1.029  -0.971
  3 B2    5 B1    1 A2   11 A1   12 A1   13 A1    6 B1   14 A1                 
 -0.846  -0.812  -0.708  -0.646  -0.645  -0.601  -0.582  -0.541
  7 B1   15 A1   16 A1    8 B1   17 A1    9 B1   18 A1    4 B2                 
 -0.513  -0.503  -0.448  -0.415  -0.350  -0.321
 10 B1   19 A1    5 B2   11 B1    2 A2    6 B2                                 
 -- Virtual --                   
  0.113   0.114   0.140   0.166   0.174   0.191   0.205   0.208
  7 B2    3 A2   20 A1   12 B1   21 A1   22 A1   23 A1   13 B1                 
  0.300   0.312   0.316   0.375   0.386   0.394   0.397   0.412
  8 B2   24 A1   14 B1   15 B1   25 A1   26 A1    9 B2   16 B1                 
  0.421   0.435   0.453   0.468   0.475   0.484   0.500   0.512
 27 A1   10 B2    4 A2   17 B1   28 A1   11 B2   29 A1   18 B1                 
  0.516   0.547   0.556   0.566   0.579   0.580   0.587   0.591
  5 A2   30 A1   31 A1   12 B2   19 B1   13 B2   32 A1   20 B1                 
  0.598   0.616   0.640   0.645   0.670   0.675   0.684   0.724
  6 A2   33 A1   21 B1   34 A1   14 B2   22 B1   35 A1   23 B1                 
  0.727   0.762   0.765   0.800   0.806   0.844   0.849   0.869
 36 A1   15 B2   37 A1   38 A1   24 B1    7 A2    8 A2   25 B1                 
  0.917   0.919   0.921   0.955   0.962   0.991   0.998   1.020
 16 B2   26 B1   39 A1    9 A2   40 A1   27 B1   41 A1   28 B1                 
  1.056   1.057   1.093   1.103   1.111   1.171   1.197   1.205
 17 B2   42 A1   29 B1   43 A1   44 A1   18 B2   10 A2   19 B2                 
  1.227   1.249   1.259   1.280   1.288   1.329   1.375   1.376
 45 A1   30 B1   20 B2   11 A2   46 A1   47 A1   31 B1   48 A1                 
  1.378   1.442   1.477   1.477   1.483   1.498   1.512   1.526
 32 B1   21 B2   49 A1   12 A2   33 B1   34 B1   35 B1   22 B2                 
  1.547   1.570   1.578   1.602   1.616   1.634   1.674   1.714
 50 A1   36 B1   13 A2   51 A1   37 B1   52 A1   53 A1   23 B2                 
  1.719   1.725   1.731   1.755   1.780   1.881   1.914   1.917
 38 B1   14 A2   54 A1   39 B1   24 B2   55 A1   56 A1   40 B1                 
  1.967   1.977   2.054   2.070   2.103   2.107   2.108   2.142
 15 A2   25 B2   57 A1   16 A2   26 B2   58 A1   41 B1   42 B1                 
  2.187   2.203   2.206   2.259   2.305   2.330   2.336   2.343
 59 A1   43 B1   60 A1   27 B2   61 A1   62 A1   44 B1   28 B2                 
  2.415   2.443   2.461   2.480   2.549   2.556   2.573   2.595
 45 B1   17 A2   63 A1   29 B2   18 A2   30 B2   46 B1   64 A1                 
  2.655   2.657   2.676   2.742   2.743   2.766   2.775   2.829
 19 A2   47 B1   65 A1   66 A1   48 B1   67 A1   49 B1   31 B2                 
  2.843   2.843   2.911   2.948   2.950   2.998   2.998   3.007
 32 B2   68 A1   50 B1   33 B2   20 A2   34 B2   69 A1   51 B1                 
  3.018   3.042   3.047   3.065   3.078   3.112   3.154   3.168
 35 B2   70 A1   21 A2   52 B1   22 A2   71 A1   72 A1   53 B1                 
  3.192   3.218   3.225   3.262   3.278   3.315   3.325   3.347
 36 B2   37 B2   23 A2   38 B2   73 A1   54 B1   74 A1   55 B1                 
  3.370   3.375   3.391   3.393   3.415   3.429   3.437   3.440
 24 A2   56 B1   75 A1   76 A1   77 A1   25 A2   57 B1   78 A1                 
  3.458   3.459   3.465   3.480   3.498   3.531   3.629   3.631
 79 A1   26 A2   58 B1   39 B2   40 B2   59 B1   80 A1   41 B2                 
  3.639   3.649   3.650   3.667   3.679   3.686   3.727   3.729
 27 A2   81 A1   42 B2   60 B1   28 A2   61 B1   43 B2   62 B1                 
  3.759   3.788   3.895   3.925   3.966   3.975   3.980   3.991
 82 A1   29 A2   83 A1   84 A1   63 B1   44 B2   30 A2   85 A1                 
  4.072   4.094   4.104   4.118   4.125   4.140   4.144   4.145
 31 A2   45 B2   86 A1   64 B1   65 B1   46 B2   32 A2   87 A1                 
  4.168   4.181   4.196   4.204   4.244   4.312   4.368   4.373
 66 B1   47 B2   33 A2   88 A1   67 B1   89 A1   68 B1   48 B2                 
  4.407   4.434   4.452   4.493   4.499   4.510   4.515   4.536
 34 A2   90 A1   69 B1   49 B2   70 B1   91 A1   92 A1   71 B1                 
  4.589   4.612   4.653   4.659   4.670   4.672   4.694   4.695
 93 A1   35 A2   36 A2   50 B2   94 A1   72 B1   95 A1   51 B2                 
  4.701   4.796   4.884   4.982   5.028   5.034   5.056   5.079
 73 B1   96 A1   74 B1   97 A1   52 B2   98 A1   53 B2   75 B1                 
  5.100   5.107   5.135   5.139   5.241   5.283   5.312   5.349
 76 B1   37 A2   38 A2   99 A1   54 B2  100 A1   77 B1  101 A1                 
  5.369   5.381   5.442   5.491   5.522   5.589   5.726   5.908
 39 A2   78 B1  102 A1  103 A1   79 B1   80 B1   55 B2   81 B1                 
  5.921   6.033   6.079   6.280   6.302   6.423   6.462   6.757
104 A1  105 A1  106 A1   82 B1   83 B1   84 B1  107 A1  108 A1                 
  7.180   9.033  12.559  13.210  13.467  13.805  16.116
 85 B1  109 A1  110 A1   86 B1  111 A1   87 B1  112 A1                         

 Occupation and symmetry of molecular orbitals

 Point group: C2v (4 irreducible representations).

                           A1   A2   B1   B2    All 
 ----------------------------------------------------
 All molecular orbitals:
  - Alpha                  112  39   87   55    293 
  - Beta                   112  39   87   55    293 
 ----------------------------------------------------
 Alpha orbitals:
  - Frozen occupied        9    0    4    2     15  
  - Active occupied        10   2    7    4     23  
  - Active virtual         93   37   76   49    255 
  - Frozen virtual         0    0    0    0     0   
 ----------------------------------------------------
 Beta orbitals:
  - Frozen occupied        9    0    4    2     15  
  - Active occupied        10   2    7    4     23  
  - Active virtual         93   37   76   49    255 
  - Frozen virtual         0    0    0    0     0   
 ----------------------------------------------------

 Import integrals:   CPU 0.00 s  wall 0.00 s

 Import integrals:   CPU 2554.26 s  wall 360.52 s

 MP2 amplitudes:   CPU 11.38 s  wall 2.04 s

Running a single precision version
I will use integrals, stored in single precision format
           CCSD T amplitudes will be solved using DIIS.

           Start     Size      MaxIter   EConv     TConv     
           3         7         100       1.00e-06  1.00e-04  
 ------------------------------------------------------------------------------
           Energy (a.u.)   Ediff      Tdiff       Comment
 ------------------------------------------------------------------------------
         -2803.81672300                           
     1   -2803.80149624   1.52e-02   1.04e+00     
     2   -2803.83662172   3.51e-02   1.46e-01     
     3   -2803.83502480   1.60e-03   5.04e-02     
     4   -2803.83789623   2.87e-03   1.44e-02     Switched to DIIS steps.
     5   -2803.83877789   8.82e-04   1.08e-02     
     6   -2803.83880331   2.54e-05   2.02e-03     
     7   -2803.83879012   1.32e-05   1.01e-03     
     8   -2803.83878962   4.98e-07   2.02e-04     
     9   -2803.83879009   4.66e-07   7.21e-05     
 ------------------------------------------------------------------------------
         -2803.83879009                           CCSD T converged.

End of single precision
No iterations in double precision will be done
 SCF energy                 = -2802.64222611
 MP2 energy                 = -2803.81672377
 CCSD correlation energy     =    -1.19656397
 CCSD total energy           = -2803.83879009

 CCSD  T1^2 = 0.0078  T2^2 = 0.4248  Leading amplitudes:

 Amplitude    Orbitals with energies
 -0.0188       6 (B2) A                  ->    11 (B2) A                  
              -0.3214                          0.4838                     
 -0.0188       6 (B2) B                  ->    11 (B2) B                  
              -0.3214                          0.4838                     
  0.0183       2 (A2) B                  ->    4 (A2) B                   
              -0.3497                          0.4533                     
  0.0183       2 (A2) A                  ->    4 (A2) A                   
              -0.3497                          0.4533                     

 Amplitude    Orbitals with energies
 -0.0797       2 (A2) A      2 (A2) B    ->    3 (A2) A      3 (A2) B     
              -0.3497       -0.3497            0.1144        0.1144       
  0.0797       2 (A2) A      2 (A2) B    ->    3 (A2) B      3 (A2) A     
              -0.3497       -0.3497            0.1144        0.1144       
  0.0797       2 (A2) B      2 (A2) A    ->    3 (A2) A      3 (A2) B     
              -0.3497       -0.3497            0.1144        0.1144       
 -0.0797       2 (A2) B      2 (A2) A    ->    3 (A2) B      3 (A2) A     
              -0.3497       -0.3497            0.1144        0.1144       

 Computing CCSD intemediates for later calculations in single precision
 Finished.

 CCSD calculation:   CPU 1798.12 s  wall 267.07 s

 EOMEE-CCSD calculation:   CPU 115.20 s  wall 285.66 s

        Solving for EOMIP-CCSD A2 transitions.

Running a single precision version
      EOMIP-CCSD/MP2 right amplitudes will be solved using Davidson.
      Amplitudes will be solved using standard  algorithm
      Roots     MaxVec    MaxIter   Precond   Conv      Thresh    Shift    
      1         60        60        1         1.00e-06  1.00e-06  0.00e+00  
 ------------------------------------------------------------------------------
      Iter ConvRoots NVecs ResNorm Current eigenvalues (eV)
 ------------------------------------------------------------------------------
      0    0      1     9.67e-02   11.8137   
      1    0      2     3.08e-02   10.0752   
      2    0      3     8.14e-04   9.5909   
      3    0      4     5.30e-05   9.5695   
      4    0      5     3.22e-06   9.5682   
      5    1      6     2.43e-07   9.5681*  

     Davidson procedure converged

 EOMIP transition 1/A2
 Total energy = -2803.48716866 a.u.  Excitation energy = 9.5681 eV.
 R1^2 = 0.9375  R2^2 = 0.0625  Res^2 = 2.43e-07
 Conv-d = yes

 Amplitude    Transitions between orbitals
  0.9683       2 (A2) A                  ->    infty        

              Summary of significant orbitals:

               Number  Type             Irrep      Energy
               37      Occ  Alpha       2 (A2)     -0.3497


Running a single precision version
      EOMIP-CCSD/MP2 left amplitudes will be solved using Davidson.
      Amplitudes will be solved using MOM  algorithm
      Roots     MaxVec    MaxIter   Precond   Conv      Thresh    Shift    
      1         60        60        1         1.00e-06  1.00e-06  0.00e+00  
 ------------------------------------------------------------------------------
      Iter ConvRoots NVecs ResNorm Current eigenvalues (eV)
 ------------------------------------------------------------------------------
      0    0      1     3.14e-03   9.5681   
      1    0      2     1.24e-03   9.5681   
      2    0      3     6.32e-05   9.5681   
      3    0      4     3.56e-06   9.5681   
      4    1      5     1.38e-07   9.5681*  

     Davidson procedure converged

Running a double precision version
           EOM amplitude response will be solved using DIIS.
           Start     Size      MaxIter   EConv     ZConv     
           3         7         100       1.00e-06  1.00e-06  
 ------------------------------------------------------------------------------
            Enorm      Zdiff       Comment
 ------------------------------------------------------------------------------
     1     9.64e-02   5.30e-02     
     2     3.25e-02   2.01e-02     
     3     1.58e-02   7.17e-03     
     4     5.09e-03   5.33e-03     Switched to DIIS steps.
     5     2.52e-03   1.21e-03     
     6     8.04e-04   4.87e-04     
     7     3.09e-04   7.58e-05     
     8     1.25e-04   1.96e-05     
     9     4.92e-05   5.27e-06     
    10     2.48e-05   5.47e-07     
    11     1.16e-05   1.06e-07     
    12     5.66e-06   3.77e-08     
    13     2.33e-06   9.85e-08     
    14     1.16e-06   1.24e-07     
    15     5.18e-07   9.51e-08     
 ------------------------------------------------------------------------------
                                   Amplitude response converged.

           Orbital response amplitudes will be solved using DIIS.
           Start     Size      MaxIter   EConv     LConv     
           3         7         100       1.00e-06  1.00e-06  
 ------------------------------------------------------------------------------
            Enorm      Ldiff       Comment
 ------------------------------------------------------------------------------
     1     1.18e-01   5.90e-04     
     2     6.79e-02   2.51e-02     
     3     5.24e-02   2.30e-02     
     4     8.83e-03   1.11e-02     Switched to DIIS steps.
     5     6.44e-03   2.41e-03     
     6     3.92e-03   3.15e-03     
     7     1.42e-03   1.22e-03     
     8     9.03e-04   8.47e-04     
     9     9.29e-04   2.70e-04     
    10     9.14e-04   5.54e-05     
    11     7.84e-04   2.06e-04     
    12     6.46e-04   8.73e-05     
    13     2.87e-04   1.32e-04     
    14     1.58e-04   8.48e-05     
    15     5.38e-05   2.01e-06     
    16     2.11e-05   2.53e-06     
    17     1.11e-05   4.69e-06     
    18     5.89e-06   3.33e-06     
    19     3.32e-06   2.89e-06     
    20     2.52e-06   1.76e-06     
    21     2.00e-06   1.62e-07     
    22     1.94e-06   1.72e-07     
    23     1.95e-06   7.27e-08     
    24     1.84e-06   3.24e-07     
    25     1.61e-06   3.26e-07     
    26     9.24e-07   8.95e-07     
 ------------------------------------------------------------------------------
                                   Orbital response converged.

 EOMIP-CCSD calculation:   CPU 4522.31 s  wall 2593.26 s

 Transferring MO TPDM to AO TPDM
 Transferring g2_o1o1o1o1
 Transferring g2_o1o1o1v1
 Transferring g2_o1o1v1v1
 Transferring g2_o1v1o1v1
 Transferring g2_o1v1v1v1
 Transferring g2_v1v1v1v1
 Adding separable TPDM
 Computing TPDM gradient
 --------------------------------------------------------
 2e gradient
  Atom          X               Y               Z
 --------------------------------------------------------
    1          5.669776       -0.000000       -2.346940  
    2         10.617084        0.000000        4.096570  
    3          7.798511       -0.000000        5.337518  
    4          4.674658       -0.000000        2.860234  
    5         -0.000000        0.000000       10.107895  
    6          0.000000       -0.000000        5.348773  
    7         -7.798511       -0.000000        5.337518  
    8         -4.674658       -0.000000        2.860234  
    9        -10.617084       -0.000000        4.096570  
   10         -5.669776       -0.000000       -2.346940  
   11         -0.000000        0.000000       11.611323  
   12         -0.000000        0.000000      -46.962755  
 --------------------------------------------------------
 --------------------------------------------------------
 Final gradient
  Atom          X               Y               Z
 --------------------------------------------------------
    1          5.669776       -0.000000       -2.346940  
    2         10.617084        0.000000        4.096570  
    3          7.798511       -0.000000        5.337518  
    4          4.674658       -0.000000        2.860234  
    5         -0.000000        0.000000       10.107895  
    6          0.000000       -0.000000        5.348773  
    7         -7.798511       -0.000000        5.337518  
    8         -4.674658       -0.000000        2.860234  
    9        -10.617084       -0.000000        4.096570  
   10         -5.669776       -0.000000       -2.346940  
   11         -0.000000        0.000000       11.611323  
   12         -0.000000        0.000000      -46.962755  
 --------------------------------------------------------
 Analytic gradient from two-electron contribution:   CPU 145531.63 s  wall 20181.39 s

 Total ccman2 time:   CPU 154598.43 s  wall 23705.30 s


 --------------------------------------------------------------
             Orbital Energies (a.u.) and Symmetries
 --------------------------------------------------------------

 Alpha MOs, Unrestricted
 -- Occupied --                  
-490.02  -65.16  -58.52  -11.29  -11.25  -11.24  -11.24   -9.84
  1 A1    2 A1    3 A1    4 A1    5 A1    6 A1    7 A1    8 A1                 
 -7.451 -58.516 -11.246 -11.245  -7.443 -58.516  -7.444  -3.194
  9 A1    1 B1    2 B1    3 B1    4 B1    1 B2    2 B2   10 A1                 
 -3.182  -1.185  -1.097  -0.971  -0.812  -0.708  -0.645  -0.582
 11 A1   12 A1   13 A1   14 A1   15 A1   16 A1   17 A1   18 A1                 
 -0.503  -3.182  -0.350  -3.190  -1.029  -0.846  -0.646  -0.601
 19 A1    1 A2    2 A2    5 B1    6 B1    7 B1    8 B1    9 B1                 
 -0.513  -0.415  -3.190  -0.541  -0.448  -0.321
 10 B1   11 B1    3 B2    4 B2    5 B2    6 B2                                 
 -- Virtual --                   
  0.140   0.174   0.191   0.205   0.312   0.386   0.394   0.421
 20 A1   21 A1   22 A1   23 A1   24 A1   25 A1   26 A1   27 A1                 
  0.475   0.500   0.547   0.556   0.587   0.616   0.645   0.684
 28 A1   29 A1   30 A1   31 A1   32 A1   33 A1   34 A1   35 A1                 
  0.727   0.765   0.800   0.921   0.962   0.998   1.057   1.103
 36 A1   37 A1   38 A1   39 A1   40 A1   41 A1   42 A1   43 A1                 
  1.111   1.227   1.288   1.329   1.376   1.477   1.547   1.602
 44 A1   45 A1   46 A1   47 A1   48 A1   49 A1   50 A1   51 A1                 
  1.634   1.674   1.731   1.881   1.914   2.054   2.107   2.187
 52 A1   53 A1   54 A1   55 A1   56 A1   57 A1   58 A1   59 A1                 
  2.206   2.305   2.330   2.461   2.595   2.676   2.742   2.766
 60 A1   61 A1   62 A1   63 A1   64 A1   65 A1   66 A1   67 A1                 
  2.843   2.998   3.042   3.112   3.154   3.278   3.325   3.391
 68 A1   69 A1   70 A1   71 A1   72 A1   73 A1   74 A1   75 A1                 
  3.393   3.415   3.440   3.458   3.629   3.649   3.759   3.895
 76 A1   77 A1   78 A1   79 A1   80 A1   81 A1   82 A1   83 A1                 
  3.925   3.991   4.104   4.145   4.204   4.312   4.434   4.510
 84 A1   85 A1   86 A1   87 A1   88 A1   89 A1   90 A1   91 A1                 
  4.515   4.589   4.670   4.694   4.796   4.982   5.034   5.139
 92 A1   93 A1   94 A1   95 A1   96 A1   97 A1   98 A1   99 A1                 
  5.283   5.349   5.442   5.491   5.921   6.033   6.079   6.462
100 A1  101 A1  102 A1  103 A1  104 A1  105 A1  106 A1  107 A1                 
  6.757   9.033  12.559  13.467  16.116   0.114   0.453   0.516
108 A1  109 A1  110 A1  111 A1  112 A1    3 A2    4 A2    5 A2                 
  0.598   0.844   0.849   0.955   1.197   1.280   1.477   1.578
  6 A2    7 A2    8 A2    9 A2   10 A2   11 A2   12 A2   13 A2                 
  1.725   1.967   2.070   2.443   2.549   2.655   2.950   3.047
 14 A2   15 A2   16 A2   17 A2   18 A2   19 A2   20 A2   21 A2                 
  3.078   3.225   3.370   3.429   3.459   3.639   3.679   3.788
 22 A2   23 A2   24 A2   25 A2   26 A2   27 A2   28 A2   29 A2                 
  3.980   4.072   4.144   4.196   4.407   4.612   4.653   5.107
 30 A2   31 A2   32 A2   33 A2   34 A2   35 A2   36 A2   37 A2                 
  5.135   5.369   0.166   0.208   0.316   0.375   0.412   0.468
 38 A2   39 A2   12 B1   13 B1   14 B1   15 B1   16 B1   17 B1                 
  0.512   0.579   0.591   0.640   0.675   0.724   0.806   0.869
 18 B1   19 B1   20 B1   21 B1   22 B1   23 B1   24 B1   25 B1                 
  0.919   0.991   1.020   1.093   1.249   1.375   1.378   1.483
 26 B1   27 B1   28 B1   29 B1   30 B1   31 B1   32 B1   33 B1                 
  1.498   1.512   1.570   1.616   1.719   1.755   1.917   2.108
 34 B1   35 B1   36 B1   37 B1   38 B1   39 B1   40 B1   41 B1                 
  2.142   2.203   2.336   2.415   2.573   2.657   2.743   2.775
 42 B1   43 B1   44 B1   45 B1   46 B1   47 B1   48 B1   49 B1                 
  2.911   3.007   3.065   3.168   3.315   3.347   3.375   3.437
 50 B1   51 B1   52 B1   53 B1   54 B1   55 B1   56 B1   57 B1                 
  3.465   3.531   3.667   3.686   3.729   3.966   4.118   4.125
 58 B1   59 B1   60 B1   61 B1   62 B1   63 B1   64 B1   65 B1                 
  4.168   4.244   4.368   4.452   4.499   4.536   4.672   4.701
 66 B1   67 B1   68 B1   69 B1   70 B1   71 B1   72 B1   73 B1                 
  4.884   5.079   5.100   5.312   5.381   5.522   5.589   5.908
 74 B1   75 B1   76 B1   77 B1   78 B1   79 B1   80 B1   81 B1                 
  6.280   6.302   6.423   7.180  13.210  13.805   0.113   0.300
 82 B1   83 B1   84 B1   85 B1   86 B1   87 B1    7 B2    8 B2                 
  0.397   0.435   0.484   0.566   0.580   0.670   0.762   0.917
  9 B2   10 B2   11 B2   12 B2   13 B2   14 B2   15 B2   16 B2                 
  1.056   1.171   1.205   1.259   1.442   1.526   1.714   1.780
 17 B2   18 B2   19 B2   20 B2   21 B2   22 B2   23 B2   24 B2                 
  1.977   2.103   2.259   2.343   2.480   2.556   2.829   2.843
 25 B2   26 B2   27 B2   28 B2   29 B2   30 B2   31 B2   32 B2                 
  2.948   2.998   3.018   3.192   3.218   3.262   3.480   3.498
 33 B2   34 B2   35 B2   36 B2   37 B2   38 B2   39 B2   40 B2                 
  3.631   3.650   3.727   3.975   4.094   4.140   4.181   4.373
 41 B2   42 B2   43 B2   44 B2   45 B2   46 B2   47 B2   48 B2                 
  4.493   4.659   4.695   5.028   5.056   5.241   5.726
 49 B2   50 B2   51 B2   52 B2   53 B2   54 B2   55 B2                         

 Beta MOs, Unrestricted
 -- Occupied --                  
-490.02  -65.16  -58.52  -11.29  -11.25  -11.24  -11.24   -9.84
  1 A1    2 A1    3 A1    4 A1    5 A1    6 A1    7 A1    8 A1                 
 -7.451 -58.516 -11.246 -11.245  -7.443 -58.516  -7.444  -3.194
  9 A1    1 B1    2 B1    3 B1    4 B1    1 B2    2 B2   10 A1                 
 -3.182  -1.185  -1.097  -0.971  -0.812  -0.708  -0.645  -0.582
 11 A1   12 A1   13 A1   14 A1   15 A1   16 A1   17 A1   18 A1                 
 -0.503  -3.182  -0.350  -3.190  -1.029  -0.846  -0.646  -0.601
 19 A1    1 A2    2 A2    5 B1    6 B1    7 B1    8 B1    9 B1                 
 -0.513  -0.415  -3.190  -0.541  -0.448  -0.321
 10 B1   11 B1    3 B2    4 B2    5 B2    6 B2                                 
 -- Virtual --                   
  0.140   0.174   0.191   0.205   0.312   0.386   0.394   0.421
 20 A1   21 A1   22 A1   23 A1   24 A1   25 A1   26 A1   27 A1                 
  0.475   0.500   0.547   0.556   0.587   0.616   0.645   0.684
 28 A1   29 A1   30 A1   31 A1   32 A1   33 A1   34 A1   35 A1                 
  0.727   0.765   0.800   0.921   0.962   0.998   1.057   1.103
 36 A1   37 A1   38 A1   39 A1   40 A1   41 A1   42 A1   43 A1                 
  1.111   1.227   1.288   1.329   1.376   1.477   1.547   1.602
 44 A1   45 A1   46 A1   47 A1   48 A1   49 A1   50 A1   51 A1                 
  1.634   1.674   1.731   1.881   1.914   2.054   2.107   2.187
 52 A1   53 A1   54 A1   55 A1   56 A1   57 A1   58 A1   59 A1                 
  2.206   2.305   2.330   2.461   2.595   2.676   2.742   2.766
 60 A1   61 A1   62 A1   63 A1   64 A1   65 A1   66 A1   67 A1                 
  2.843   2.998   3.042   3.112   3.154   3.278   3.325   3.391
 68 A1   69 A1   70 A1   71 A1   72 A1   73 A1   74 A1   75 A1                 
  3.393   3.415   3.440   3.458   3.629   3.649   3.759   3.895
 76 A1   77 A1   78 A1   79 A1   80 A1   81 A1   82 A1   83 A1                 
  3.925   3.991   4.104   4.145   4.204   4.312   4.434   4.510
 84 A1   85 A1   86 A1   87 A1   88 A1   89 A1   90 A1   91 A1                 
  4.515   4.589   4.670   4.694   4.796   4.982   5.034   5.139
 92 A1   93 A1   94 A1   95 A1   96 A1   97 A1   98 A1   99 A1                 
  5.283   5.349   5.442   5.491   5.921   6.033   6.079   6.462
100 A1  101 A1  102 A1  103 A1  104 A1  105 A1  106 A1  107 A1                 
  6.757   9.033  12.559  13.467  16.116   0.114   0.453   0.516
108 A1  109 A1  110 A1  111 A1  112 A1    3 A2    4 A2    5 A2                 
  0.598   0.844   0.849   0.955   1.197   1.280   1.477   1.578
  6 A2    7 A2    8 A2    9 A2   10 A2   11 A2   12 A2   13 A2                 
  1.725   1.967   2.070   2.443   2.549   2.655   2.950   3.047
 14 A2   15 A2   16 A2   17 A2   18 A2   19 A2   20 A2   21 A2                 
  3.078   3.225   3.370   3.429   3.459   3.639   3.679   3.788
 22 A2   23 A2   24 A2   25 A2   26 A2   27 A2   28 A2   29 A2                 
  3.980   4.072   4.144   4.196   4.407   4.612   4.653   5.107
 30 A2   31 A2   32 A2   33 A2   34 A2   35 A2   36 A2   37 A2                 
  5.135   5.369   0.166   0.208   0.316   0.375   0.412   0.468
 38 A2   39 A2   12 B1   13 B1   14 B1   15 B1   16 B1   17 B1                 
  0.512   0.579   0.591   0.640   0.675   0.724   0.806   0.869
 18 B1   19 B1   20 B1   21 B1   22 B1   23 B1   24 B1   25 B1                 
  0.919   0.991   1.020   1.093   1.249   1.375   1.378   1.483
 26 B1   27 B1   28 B1   29 B1   30 B1   31 B1   32 B1   33 B1                 
  1.498   1.512   1.570   1.616   1.719   1.755   1.917   2.108
 34 B1   35 B1   36 B1   37 B1   38 B1   39 B1   40 B1   41 B1                 
  2.142   2.203   2.336   2.415   2.573   2.657   2.743   2.775
 42 B1   43 B1   44 B1   45 B1   46 B1   47 B1   48 B1   49 B1                 
  2.911   3.007   3.065   3.168   3.315   3.347   3.375   3.437
 50 B1   51 B1   52 B1   53 B1   54 B1   55 B1   56 B1   57 B1                 
  3.465   3.531   3.667   3.686   3.729   3.966   4.118   4.125
 58 B1   59 B1   60 B1   61 B1   62 B1   63 B1   64 B1   65 B1                 
  4.168   4.244   4.368   4.452   4.499   4.536   4.672   4.701
 66 B1   67 B1   68 B1   69 B1   70 B1   71 B1   72 B1   73 B1                 
  4.884   5.079   5.100   5.312   5.381   5.522   5.589   5.908
 74 B1   75 B1   76 B1   77 B1   78 B1   79 B1   80 B1   81 B1                 
  6.280   6.302   6.423   7.180  13.210  13.805   0.113   0.300
 82 B1   83 B1   84 B1   85 B1   86 B1   87 B1    7 B2    8 B2                 
  0.397   0.435   0.484   0.566   0.580   0.670   0.762   0.917
  9 B2   10 B2   11 B2   12 B2   13 B2   14 B2   15 B2   16 B2                 
  1.056   1.171   1.205   1.259   1.442   1.526   1.714   1.780
 17 B2   18 B2   19 B2   20 B2   21 B2   22 B2   23 B2   24 B2                 
  1.977   2.103   2.259   2.343   2.480   2.556   2.829   2.843
 25 B2   26 B2   27 B2   28 B2   29 B2   30 B2   31 B2   32 B2                 
  2.948   2.998   3.018   3.192   3.218   3.262   3.480   3.498
 33 B2   34 B2   35 B2   36 B2   37 B2   38 B2   39 B2   40 B2                 
  3.631   3.650   3.727   3.975   4.094   4.140   4.181   4.373
 41 B2   42 B2   43 B2   44 B2   45 B2   46 B2   47 B2   48 B2                 
  4.493   4.659   4.695   5.028   5.056   5.241   5.726
 49 B2   50 B2   51 B2   52 B2   53 B2   54 B2   55 B2                         
 --------------------------------------------------------------

          Ground-State Mulliken Net Atomic Charges

     Atom                 Charge (a.u.)    Spin (a.u.)
  --------------------------------------------------------
      1 H                     0.230449       0.012924
      2 C                    -0.030057      -0.330992
      3 C                    -0.004238      -0.314157
      4 H                     0.227085       0.013945
      5 C                    -0.147924       0.116211
      6 H                     0.215015      -0.003918
      7 C                    -0.004238      -0.314157
      8 H                     0.227085       0.013945
      9 C                    -0.030057      -0.330992
     10 H                     0.230449       0.012924
     11 C                    -0.026622       0.114173
     12 Br                    0.113054       0.010095
  --------------------------------------------------------
  Sum of atomic charges =     1.000000
  Sum of spin   charges =    -1.000000

 -----------------------------------------------------------------
                    Cartesian Multipole Moments
 -----------------------------------------------------------------
    Charge (ESU x 10^10)
                 4.8032
    Dipole Moment (Debye)
         X       0.0000      Y       0.0000      Z      -6.6404
       Tot       6.6404
    Quadrupole Moments (Debye-Ang)
        XX     -35.5636     XY       0.0000     YY     -52.3146
        XZ      -0.0000     YZ       0.0000     ZZ     -27.8445
    Octopole Moments (Debye-Ang^2)
       XXX       0.0000    XXY      -0.0000    XYY      -0.0000
       YYY      -0.0000    XXZ      -4.7420    XYZ      -0.0000
       YYZ      19.4930    XZZ       0.0000    YZZ      -0.0000
       ZZZ       1.3320
    Hexadecapole Moments (Debye-Ang^3)
      XXXX    -219.9267   XXXY       0.0000   XXYY     -59.3921
      XYYY       0.0000   YYYY     -56.6192   XXXZ      -0.0000
      XXYZ       0.0000   XYYZ      -0.0000   YYYZ       0.0000
      XXZZ    -162.8631   XYZZ       0.0000   YYZZ    -183.8399
      XZZZ      -0.0000   YZZZ       0.0000   ZZZZ    -743.5527
 -----------------------------------------------------------------
 DrvMan completing analytic gradient of the correlated energy
 Correlated dipole moment
            1
    1   0.0000000
    2   0.0000000
    3  -2.6125427
 Energy read as -2803.487168662
 Full Analytical Gradient: (in a.u., or Hartree/Bohr)
             1             2             3             4             5
    1    0.00031871   -0.00795463   -0.00547678   -0.00035665    0.00000000
    2    0.00000000    0.00000000    0.00000000   -0.00000000   -0.00000000
    3    0.00001540   -0.02880420    0.04260788    0.00093802    0.00880334
             6             7             8             9            10
    1    0.00000000    0.00547678    0.00035665    0.00795463   -0.00031871
    2    0.00000000    0.00000000   -0.00000000   -0.00000000    0.00000000
    3   -0.00163925    0.04260788    0.00093802   -0.02880420    0.00001540
            11            12
    1    0.00000000    0.00000000
    2    0.00000000   -0.00000000
    3    0.05174381   -0.08842209
 Gradient time:  CPU 1.84 s  wall 3.19 s
 Geometry Optimization Parameters
   NAtoms,    NIC,     NZ,  NCons,   NDum,   NFix, NCnnct, MaxDiis
       12      78       0       0       0       0       0       0


** GEOMETRY OPTIMIZATION IN DELOCALIZED INTERNAL COORDINATES **
   Searching for a Minimum

   Optimization Cycle:   1

                       Coordinates (Angstroms)
     ATOM                X               Y               Z
      1  H        -2.1400320233    0.0000000000   -0.1495480158
      2  C        -1.2120583232    0.0000000000   -0.7028148658
      3  C        -1.2042956497    0.0000000000   -2.0947016297
      4  H        -2.1437187877    0.0000000000   -2.6302428250
      5  C         0.0000000000    0.0000000000   -2.7936988293
      6  H         0.0000000000    0.0000000000   -3.8745528350
      7  C         1.2042956497    0.0000000000   -2.0947016297
      8  H         2.1437187877    0.0000000000   -2.6302428250
      9  C         1.2120583232    0.0000000000   -0.7028148658
     10  H         2.1400320233    0.0000000000   -0.1495480158
     11  C         0.0000000000    0.0000000000   -0.0199042774
     12  Br        0.0000000000    0.0000000000    1.7110271744
   Point Group: c2v   Number of degrees of freedom:    11


   Energy is  -2803.487168662


 Attempting to Generate Delocalized Internal Coordinates

 11 Hessian modes will be used to form the next step
  Hessian Eigenvalues:
     0.160000    0.160000    0.220000    0.234961    0.324108    0.358316
     0.358913    0.359474    0.427026    0.469882    0.470035

 Minimum Search - Taking Simple RFO Step
 Searching for Lamda that Minimizes Along All modes
 Value Taken    Lamda =  -0.03515859
 Calculated Step too Large.  Step scaled by  0.975885
 Step Taken.  Stepsize is  0.300000

                             Maximum     Tolerance    Cnvgd?
         Gradient           0.059492      0.000300      NO
         Displacement       0.149317      0.001200      NO
         Energy change     *********      0.000001      NO


 New Cartesian Coordinates Obtained by Inverse Iteration

 Displacement from previous Coordinates is:  0.425769
 ----------------------------------------------------------------
             Standard Nuclear Orientation (Angstroms)
    I     Atom           X                Y                Z
 ----------------------------------------------------------------
    1      H      -2.1292778853     0.0000000000    -0.1557841086
    2      C      -1.1911350706     0.0000000000    -0.6923279727
    3      C      -1.1862235677     0.0000000000    -2.1323954139
    4      H      -2.1283598812     0.0000000000    -2.6635625928
    5      C       0.0000000000     0.0000000000    -2.8489057939
    6      H       0.0000000000     0.0000000000    -3.9276116261
    7      C       1.1862235677     0.0000000000    -2.1323954139
    8      H       2.1283598812     0.0000000000    -2.6635625928
    9      C       1.1911350706     0.0000000000    -0.6923279727
   10      H       2.1292778853     0.0000000000    -0.1557841086
   11      C       0.0000000000     0.0000000000     0.0374416530
   12      Br      0.0000000000     0.0000000000     1.8954725030
 ----------------------------------------------------------------
 Molecular Point Group                 C2v   NOp =  4
 Largest Abelian Subgroup              C2v   NOp =  4
 Nuclear Repulsion Energy =   430.0432038318 hartrees
 There are       38 alpha and       38 beta electrons
 Applying Cartesian multipole field
    Component          Value
    ---------          -----
     (2,0,0)        1.00000E-11
     (0,2,0)        2.00000E-10
     (0,0,2)       -3.00000E-11
 Nucleus-field energy     =    -0.0000000265 hartrees
 Requested basis set is cc-pVTZ
 There are 105 shells and 293 basis functions
 A cutoff of  1.0D-14 yielded   5216 shell pairs
 There are     41070 function pairs (     53581 Cartesian)
 Smallest overlap matrix eigenvalue = 3.68E-05
 Guess MOs from SCF MO coefficient file

 -----------------------------------------------------------------------
  General SCF calculation program by
  Eric Jon Sundstrom, Paul Horn, Yuezhi Mao, Dmitri Zuev, Alec White,
  David Stuck, Shaama M.S., Shane Yost, Joonho Lee, David Small,
  Daniel Levine, Susi Lehtola, Hugh Burton, Evgeny Epifanovsky
 -----------------------------------------------------------------------
 Hartree-Fock
 using 8 threads for integral computing
 -------------------------------------------------------
 OpenMP Integral computing Module                
 Release: version 2.0, May 2017, Q-Chem Inc. Pleasanton 
 -------------------------------------------------------
 A unrestricted SCF calculation will be
 performed using DIIS
 SCF converges when DIIS error is below 1.0e-08
 ---------------------------------------
  Cycle       Energy         DIIS error
 ---------------------------------------
    1   -2802.6423014027      3.34e-04  
    2   -2802.6476389528      9.83e-05  
    3   -2802.6480727795      5.64e-05  
    4   -2802.6482340556      1.30e-05  
    5   -2802.6482472284      4.23e-06  
    6   -2802.6482498132      2.25e-06  
    7   -2802.6482508142      1.01e-06  
    8   -2802.6482510929      3.61e-07  
    9   -2802.6482511240      1.12e-07  
   10   -2802.6482511261      2.39e-08  
   11   -2802.6482511261      7.13e-09  Convergence criterion met
 ---------------------------------------
 SCF time:   CPU 1374.73s  wall 173.00s 
<S^2> =         -0.000000000
 SCF   energy in the final basis set =    -2802.6482511261
 Total energy in the final basis set =    -2802.6482511261


 ------------------------------------------------------------------------------

   CCMAN2: suite of methods based on coupled cluster
           and equation of motion theories.

   Components:
   * libvmm-1.3-trunk
     by Evgeny Epifanovsky, Ilya Kaliman.
   * libtensor-2.5-trunk
     by Evgeny Epifanovsky, Michael Wormit, Dmitry Zuev, Sam Manzer, 
        Ilya Kaliman.
   * libcc-2.5-trunk
     by Evgeny Epifanovsky, Arik Landau, Tomasz Kus, Kirill Khistyaev, 
        Dmitry Zuev, Prashant Manohar, Xintian Feng, Anna Krylov, 
        Matthew Goldey, Alec White, Thomas Jagau, Kaushik Nanda, 
        Anastasia Gunina, Alexander Kunitsa, Joonho Lee.

   CCMAN original authors:
   Anna I. Krylov, C. David Sherrill, Steven R. Gwaltney,
   Edward F. C. Byrd (2000)
   Sergey V. Levchenko, Lyudmila V. Slipchenko, Tao Wang,
   Ana-Maria C. Cristian (2003)
   Piotr A. Pieniazek, C. Melania Oana, Evgeny Epifanovsky (2007)
   Prashant Manohar (2009)

 ------------------------------------------------------------------------------


 Allocating and initializing 80000MB of RAM...
 Calculation will run on 8 cores.


 Alpha MOs, Unrestricted
 -- Occupied --                  
-490.03  -65.17  -58.52  -58.52  -58.52  -11.30  -11.26  -11.26
  1 A1    2 A1    3 A1    1 B2    1 B1    4 A1    2 B1    5 A1                 
-11.253 -11.253 -11.245  -9.842  -7.453  -7.446  -7.446  -3.197
  6 A1    3 B1    7 A1    8 A1    9 A1    2 B2    4 B1   10 A1                 
 -3.193  -3.193  -3.184  -3.184  -1.167  -1.080  -1.014  -0.980
  3 B2    5 B1    1 A2   11 A1   12 A1   13 A1    6 B1   14 A1                 
 -0.847  -0.809  -0.707  -0.646  -0.637  -0.587  -0.584  -0.528
  7 B1   15 A1   16 A1   17 A1    8 B1    9 B1   18 A1    4 B2                 
 -0.513  -0.498  -0.443  -0.420  -0.338  -0.338
 10 B1   19 A1    5 B2   11 B1    2 A2    6 B2                                 
 -- Virtual --                   
  0.106   0.114   0.135   0.163   0.167   0.179   0.204   0.206
  3 A2    7 B2   20 A1   21 A1   12 B1   22 A1   23 A1   13 B1                 
  0.300   0.313   0.321   0.371   0.373   0.392   0.394   0.403
  8 B2   24 A1   14 B1   15 B1   25 A1    9 B2   26 A1   16 B1                 
  0.409   0.432   0.456   0.460   0.476   0.477   0.494   0.513
 27 A1   10 B2   17 B1    4 A2   28 A1   11 B2   29 A1   18 B1                 
  0.517   0.542   0.558   0.563   0.567   0.581   0.582   0.593
  5 A2   30 A1   31 A1   19 B1   12 B2   32 A1   13 B2   20 B1                 
  0.593   0.613   0.637   0.641   0.663   0.668   0.678   0.710
  6 A2   33 A1   21 B1   34 A1   14 B2   22 B1   35 A1   23 B1                 
  0.718   0.742   0.755   0.785   0.791   0.829   0.857   0.868
 36 A1   15 B2   37 A1   24 B1   38 A1    7 A2    8 A2   25 B1                 
  0.898   0.902   0.926   0.940   0.952   0.973   0.982   1.022
 16 B2   39 A1   26 B1   40 A1    9 A2   27 B1   41 A1   28 B1                 
  1.039   1.047   1.068   1.086   1.126   1.160   1.184   1.207
 17 B2   42 A1   43 A1   29 B1   44 A1   18 B2   10 A2   19 B2                 
  1.230   1.232   1.248   1.282   1.287   1.325   1.353   1.365
 30 B1   45 A1   20 B2   11 A2   46 A1   47 A1   31 B1   48 A1                 
  1.378   1.422   1.459   1.467   1.473   1.500   1.505   1.505
 32 B1   21 B2   49 A1   12 A2   33 B1   34 B1   35 B1   22 B2                 
  1.538   1.565   1.581   1.609   1.610   1.643   1.680   1.693
 50 A1   36 B1   13 A2   51 A1   37 B1   52 A1   53 A1   23 B2                 
  1.708   1.713   1.733   1.747   1.775   1.855   1.862   1.868
 14 A2   38 B1   54 A1   39 B1   24 B2   55 A1   40 B1   56 A1                 
  1.946   1.964   2.012   2.061   2.086   2.090   2.092   2.120
 15 A2   25 B2   57 A1   16 A2   26 B2   58 A1   41 B1   42 B1                 
  2.160   2.192   2.222   2.248   2.298   2.298   2.327   2.379
 59 A1   60 A1   43 B1   27 B2   44 B1   61 A1   28 B2   62 A1                 
  2.402   2.419   2.443   2.461   2.523   2.532   2.541   2.584
 45 B1   63 A1   17 A2   29 B2   46 B1   18 A2   30 B2   64 A1                 
  2.621   2.641   2.654   2.678   2.729   2.767   2.787   2.798
 19 A2   65 A1   47 B1   66 A1   48 B1   67 A1   49 B1   68 A1                 
  2.804   2.817   2.910   2.934   2.963   2.975   2.985   2.995
 31 B2   32 B2   50 B1   20 A2   33 B2   51 B1   69 A1   34 B2                 
  3.008   3.037   3.039   3.052   3.062   3.115   3.123   3.128
 35 B2   21 A2   52 B1   70 A1   22 A2   71 A1   53 B1   36 B2                 
  3.159   3.207   3.229   3.249   3.257   3.290   3.299   3.327
 72 A1   37 B2   23 A2   38 B2   73 A1   54 B1   74 A1   75 A1                 
  3.330   3.364   3.371   3.374   3.389   3.403   3.420   3.426
 55 B1   56 B1   24 A2   76 A1   77 A1   57 B1   78 A1   58 B1                 
  3.437   3.439   3.443   3.458   3.478   3.518   3.570   3.601
 39 B2   25 A2   79 A1   26 A2   40 B2   59 B1   80 A1   81 A1                 
  3.616   3.625   3.657   3.665   3.667   3.678   3.720   3.730
 41 B2   27 A2   42 B2   28 A2   60 B1   61 B1   62 B1   43 B2                 
  3.745   3.772   3.887   3.903   3.935   3.936   3.956   3.980
 82 A1   29 A2   83 A1   84 A1   63 B1   44 B2   30 A2   85 A1                 
  4.044   4.062   4.073   4.078   4.107   4.109   4.125   4.130
 45 B2   31 A2   64 B1   86 A1   87 A1   65 B1   66 B1   46 B2                 
  4.131   4.172   4.190   4.198   4.215   4.277   4.335   4.366
 32 A2   47 B2   88 A1   33 A2   67 B1   89 A1   68 B1   34 A2                 
  4.370   4.424   4.448   4.461   4.475   4.478   4.481   4.523
 48 B2   90 A1   69 B1   91 A1   49 B2   70 B1   92 A1   71 B1                 
  4.542   4.578   4.626   4.629   4.636   4.646   4.655   4.675
 93 A1   35 A2   50 B2   36 A2   72 B1   51 B2   94 A1   95 A1                 
  4.686   4.740   4.824   4.857   4.975   5.004   5.010   5.025
 73 B1   96 A1   97 A1   74 B1   98 A1   52 B2   99 A1   53 B2                 
  5.052   5.070   5.099   5.117   5.169   5.215   5.281   5.321
 75 B1   37 A2   76 B1   38 A2  100 A1   54 B2   77 B1  101 A1                 
  5.357   5.372   5.408   5.448   5.523   5.528   5.677   5.827
 39 A2   78 B1  102 A1  103 A1   79 B1   80 B1   55 B2  104 A1                 
  5.852   5.970   6.070   6.184   6.242   6.338   6.461   6.654
 81 B1  105 A1  106 A1   82 B1   83 B1   84 B1  107 A1  108 A1                 
  7.057   9.027  12.108  13.057  13.278  13.294  15.674
 85 B1  109 A1  110 A1   86 B1   87 B1  111 A1  112 A1                         

 Beta MOs, Unrestricted
 -- Occupied --                  
-490.03  -65.17  -58.52  -58.52  -58.52  -11.30  -11.26  -11.26
  1 A1    2 A1    3 A1    1 B2    1 B1    4 A1    2 B1    5 A1                 
-11.253 -11.253 -11.245  -9.842  -7.453  -7.446  -7.446  -3.197
  6 A1    3 B1    7 A1    8 A1    9 A1    2 B2    4 B1   10 A1                 
 -3.193  -3.193  -3.184  -3.184  -1.167  -1.080  -1.014  -0.980
  3 B2    5 B1    1 A2   11 A1   12 A1   13 A1    6 B1   14 A1                 
 -0.847  -0.809  -0.707  -0.646  -0.637  -0.587  -0.584  -0.528
  7 B1   15 A1   16 A1   17 A1    8 B1    9 B1   18 A1    4 B2                 
 -0.513  -0.498  -0.443  -0.420  -0.338  -0.338
 10 B1   19 A1    5 B2   11 B1    2 A2    6 B2                                 
 -- Virtual --                   
  0.106   0.114   0.135   0.163   0.167   0.179   0.204   0.206
  3 A2    7 B2   20 A1   21 A1   12 B1   22 A1   23 A1   13 B1                 
  0.300   0.313   0.321   0.371   0.373   0.392   0.394   0.403
  8 B2   24 A1   14 B1   15 B1   25 A1    9 B2   26 A1   16 B1                 
  0.409   0.432   0.456   0.460   0.476   0.477   0.494   0.513
 27 A1   10 B2   17 B1    4 A2   28 A1   11 B2   29 A1   18 B1                 
  0.517   0.542   0.558   0.563   0.567   0.581   0.582   0.593
  5 A2   30 A1   31 A1   19 B1   12 B2   32 A1   13 B2   20 B1                 
  0.593   0.613   0.637   0.641   0.663   0.668   0.678   0.710
  6 A2   33 A1   21 B1   34 A1   14 B2   22 B1   35 A1   23 B1                 
  0.718   0.742   0.755   0.785   0.791   0.829   0.857   0.868
 36 A1   15 B2   37 A1   24 B1   38 A1    7 A2    8 A2   25 B1                 
  0.898   0.902   0.926   0.940   0.952   0.973   0.982   1.022
 16 B2   39 A1   26 B1   40 A1    9 A2   27 B1   41 A1   28 B1                 
  1.039   1.047   1.068   1.086   1.126   1.160   1.184   1.207
 17 B2   42 A1   43 A1   29 B1   44 A1   18 B2   10 A2   19 B2                 
  1.230   1.232   1.248   1.282   1.287   1.325   1.353   1.365
 30 B1   45 A1   20 B2   11 A2   46 A1   47 A1   31 B1   48 A1                 
  1.378   1.422   1.459   1.467   1.473   1.500   1.505   1.505
 32 B1   21 B2   49 A1   12 A2   33 B1   34 B1   35 B1   22 B2                 
  1.538   1.565   1.581   1.609   1.610   1.643   1.680   1.693
 50 A1   36 B1   13 A2   51 A1   37 B1   52 A1   53 A1   23 B2                 
  1.708   1.713   1.733   1.747   1.775   1.855   1.862   1.868
 14 A2   38 B1   54 A1   39 B1   24 B2   55 A1   40 B1   56 A1                 
  1.946   1.964   2.012   2.061   2.086   2.090   2.092   2.120
 15 A2   25 B2   57 A1   16 A2   26 B2   58 A1   41 B1   42 B1                 
  2.160   2.192   2.222   2.248   2.298   2.298   2.327   2.379
 59 A1   60 A1   43 B1   27 B2   44 B1   61 A1   28 B2   62 A1                 
  2.402   2.419   2.443   2.461   2.523   2.532   2.541   2.584
 45 B1   63 A1   17 A2   29 B2   46 B1   18 A2   30 B2   64 A1                 
  2.621   2.641   2.654   2.678   2.729   2.767   2.787   2.798
 19 A2   65 A1   47 B1   66 A1   48 B1   67 A1   49 B1   68 A1                 
  2.804   2.817   2.910   2.934   2.963   2.975   2.985   2.995
 31 B2   32 B2   50 B1   20 A2   33 B2   51 B1   69 A1   34 B2                 
  3.008   3.037   3.039   3.052   3.062   3.115   3.123   3.128
 35 B2   21 A2   52 B1   70 A1   22 A2   71 A1   53 B1   36 B2                 
  3.159   3.207   3.229   3.249   3.257   3.290   3.299   3.327
 72 A1   37 B2   23 A2   38 B2   73 A1   54 B1   74 A1   75 A1                 
  3.330   3.364   3.371   3.374   3.389   3.403   3.420   3.426
 55 B1   56 B1   24 A2   76 A1   77 A1   57 B1   78 A1   58 B1                 
  3.437   3.439   3.443   3.458   3.478   3.518   3.570   3.601
 39 B2   25 A2   79 A1   26 A2   40 B2   59 B1   80 A1   81 A1                 
  3.616   3.625   3.657   3.665   3.667   3.678   3.720   3.730
 41 B2   27 A2   42 B2   28 A2   60 B1   61 B1   62 B1   43 B2                 
  3.745   3.772   3.887   3.903   3.935   3.936   3.956   3.980
 82 A1   29 A2   83 A1   84 A1   63 B1   44 B2   30 A2   85 A1                 
  4.044   4.062   4.073   4.078   4.107   4.109   4.125   4.130
 45 B2   31 A2   64 B1   86 A1   87 A1   65 B1   66 B1   46 B2                 
  4.131   4.172   4.190   4.198   4.215   4.277   4.335   4.366
 32 A2   47 B2   88 A1   33 A2   67 B1   89 A1   68 B1   34 A2                 
  4.370   4.424   4.448   4.461   4.475   4.478   4.481   4.523
 48 B2   90 A1   69 B1   91 A1   49 B2   70 B1   92 A1   71 B1                 
  4.542   4.578   4.626   4.629   4.636   4.646   4.655   4.675
 93 A1   35 A2   50 B2   36 A2   72 B1   51 B2   94 A1   95 A1                 
  4.686   4.740   4.824   4.857   4.975   5.004   5.010   5.025
 73 B1   96 A1   97 A1   74 B1   98 A1   52 B2   99 A1   53 B2                 
  5.052   5.070   5.099   5.117   5.169   5.215   5.281   5.321
 75 B1   37 A2   76 B1   38 A2  100 A1   54 B2   77 B1  101 A1                 
  5.357   5.372   5.408   5.448   5.523   5.528   5.677   5.827
 39 A2   78 B1  102 A1  103 A1   79 B1   80 B1   55 B2  104 A1                 
  5.852   5.970   6.070   6.184   6.242   6.338   6.461   6.654
 81 B1  105 A1  106 A1   82 B1   83 B1   84 B1  107 A1  108 A1                 
  7.057   9.027  12.108  13.057  13.278  13.294  15.674
 85 B1  109 A1  110 A1   86 B1   87 B1  111 A1  112 A1                         

 Occupation and symmetry of molecular orbitals

 Point group: C2v (4 irreducible representations).

                           A1   A2   B1   B2    All 
 ----------------------------------------------------
 All molecular orbitals:
  - Alpha                  112  39   87   55    293 
  - Beta                   112  39   87   55    293 
 ----------------------------------------------------
 Alpha orbitals:
  - Frozen occupied        9    0    4    2     15  
  - Active occupied        10   2    7    4     23  
  - Active virtual         93   37   76   49    255 
  - Frozen virtual         0    0    0    0     0   
 ----------------------------------------------------
 Beta orbitals:
  - Frozen occupied        9    0    4    2     15  
  - Active occupied        10   2    7    4     23  
  - Active virtual         93   37   76   49    255 
  - Frozen virtual         0    0    0    0     0   
 ----------------------------------------------------

 Import integrals:   CPU 0.00 s  wall 0.00 s

 Import integrals:   CPU 2455.08 s  wall 346.19 s

 MP2 amplitudes:   CPU 11.06 s  wall 2.02 s

Running a single precision version
I will use integrals, stored in single precision format
           CCSD T amplitudes will be solved using DIIS.

           Start     Size      MaxIter   EConv     TConv     
           3         7         100       1.00e-06  1.00e-04  
 ------------------------------------------------------------------------------
           Energy (a.u.)   Ediff      Tdiff       Comment
 ------------------------------------------------------------------------------
         -2803.82278974                           
     1   -2803.80722840   1.56e-02   1.05e+00     
     2   -2803.84339376   3.62e-02   1.47e-01     
     3   -2803.84162785   1.77e-03   5.23e-02     
     4   -2803.84468571   3.06e-03   1.50e-02     Switched to DIIS steps.
     5   -2803.84564262   9.57e-04   1.15e-02     
     6   -2803.84567693   3.43e-05   2.18e-03     
     7   -2803.84566209   1.48e-05   1.09e-03     
     8   -2803.84566195   1.38e-07   2.13e-04     
     9   -2803.84566171   2.39e-07   7.85e-05     
 ------------------------------------------------------------------------------
         -2803.84566171                           CCSD T converged.

End of single precision
No iterations in double precision will be done
 SCF energy                 = -2802.64825113
 MP2 energy                 = -2803.82278894
 CCSD correlation energy     =    -1.19741071
 CCSD total energy           = -2803.84566183

 CCSD  T1^2 = 0.0082  T2^2 = 0.4340  Leading amplitudes:

 Amplitude    Orbitals with energies
 -0.0213       2 (A2) B                  ->    4 (A2) B                   
              -0.3379                          0.4599                     
 -0.0213       2 (A2) A                  ->    4 (A2) A                   
              -0.3379                          0.4599                     
  0.0178       6 (B2) B                  ->    11 (B2) B                  
              -0.3376                          0.4768                     
  0.0178       6 (B2) A                  ->    11 (B2) A                  
              -0.3376                          0.4768                     

 Amplitude    Orbitals with energies
 -0.0874       2 (A2) A      2 (A2) B    ->    3 (A2) A      3 (A2) B     
              -0.3379       -0.3379            0.1060        0.1060       
  0.0874       2 (A2) A      2 (A2) B    ->    3 (A2) B      3 (A2) A     
              -0.3379       -0.3379            0.1060        0.1060       
  0.0874       2 (A2) B      2 (A2) A    ->    3 (A2) A      3 (A2) B     
              -0.3379       -0.3379            0.1060        0.1060       
 -0.0874       2 (A2) B      2 (A2) A    ->    3 (A2) B      3 (A2) A     
              -0.3379       -0.3379            0.1060        0.1060       

 Computing CCSD intemediates for later calculations in single precision
 Finished.

 CCSD calculation:   CPU 1908.20 s  wall 278.92 s

 EOMEE-CCSD calculation:   CPU 119.45 s  wall 287.18 s

        Solving for EOMIP-CCSD A2 transitions.

Running a single precision version
      EOMIP-CCSD/MP2 right amplitudes will be solved using Davidson.
      Amplitudes will be solved using standard  algorithm
      Roots     MaxVec    MaxIter   Precond   Conv      Thresh    Shift    
      1         60        60        1         1.00e-06  1.00e-06  0.00e+00  
 ------------------------------------------------------------------------------
      Iter ConvRoots NVecs ResNorm Current eigenvalues (eV)
 ------------------------------------------------------------------------------
      0    0      1     9.35e-02   11.5211   
      1    0      2     3.00e-02   9.8212   
      2    0      3     7.87e-04   9.3493   
      3    0      4     4.72e-05   9.3285   
      4    0      5     2.51e-06   9.3274   
      5    1      6     1.78e-07   9.3273*  

     Davidson procedure converged

 EOMIP transition 1/A2
 Total energy = -2803.50289032 a.u.  Excitation energy = 9.3273 eV.
 R1^2 = 0.9384  R2^2 = 0.0616  Res^2 = 1.78e-07
 Conv-d = yes

 Amplitude    Transitions between orbitals
  0.9687       2 (A2) A                  ->    infty        

              Summary of significant orbitals:

               Number  Type             Irrep      Energy
               37      Occ  Alpha       2 (A2)     -0.3379


Running a single precision version
      EOMIP-CCSD/MP2 left amplitudes will be solved using Davidson.
      Amplitudes will be solved using MOM  algorithm
      Roots     MaxVec    MaxIter   Precond   Conv      Thresh    Shift    
      1         60        60        1         1.00e-06  1.00e-06  0.00e+00  
 ------------------------------------------------------------------------------
      Iter ConvRoots NVecs ResNorm Current eigenvalues (eV)
 ------------------------------------------------------------------------------
      0    0      1     3.04e-03   9.3273   
      1    0      2     1.20e-03   9.3273   
      2    0      3     6.14e-05   9.3273   
      3    0      4     3.50e-06   9.3273   
      4    1      5     1.31e-07   9.3273*  

     Davidson procedure converged

Running a double precision version
           EOM amplitude response will be solved using DIIS.
           Start     Size      MaxIter   EConv     ZConv     
           3         7         100       1.00e-06  1.00e-06  
 ------------------------------------------------------------------------------
            Enorm      Zdiff       Comment
 ------------------------------------------------------------------------------
     1     9.79e-02   5.41e-02     
     2     3.33e-02   2.07e-02     
     3     1.61e-02   7.41e-03     
     4     5.12e-03   5.53e-03     Switched to DIIS steps.
     5     2.45e-03   1.23e-03     
     6     7.83e-04   4.63e-04     
     7     3.01e-04   7.12e-05     
     8     1.19e-04   1.55e-05     
     9     4.37e-05   5.42e-06     
    10     2.23e-05   9.15e-08     
    11     1.15e-05   1.17e-07     
    12     6.14e-06   9.73e-08     
    13     2.62e-06   8.45e-08     
    14     1.31e-06   1.10e-07     
    15     6.33e-07   8.93e-08     
 ------------------------------------------------------------------------------
                                   Amplitude response converged.

           Orbital response amplitudes will be solved using DIIS.
           Start     Size      MaxIter   EConv     LConv     
           3         7         100       1.00e-06  1.00e-06  
 ------------------------------------------------------------------------------
            Enorm      Ldiff       Comment
 ------------------------------------------------------------------------------
     1     1.16e-01   1.40e-03     
     2     6.62e-02   2.24e-02     
     3     5.15e-02   2.21e-02     
     4     9.13e-03   1.07e-02     Switched to DIIS steps.
     5     6.95e-03   2.87e-03     
     6     3.74e-03   2.75e-03     
     7     1.49e-03   1.73e-03     
     8     4.45e-04   8.24e-04     
     9     2.72e-04   2.60e-04     
    10     2.37e-04   2.70e-05     
    11     2.16e-04   3.27e-05     
    12     2.22e-04   4.54e-06     
    13     2.20e-04   9.08e-06     
    14     1.45e-04   3.94e-05     
    15     8.02e-05   2.01e-06     
    16     2.40e-05   2.07e-05     
    17     1.06e-05   1.11e-05     
    18     4.36e-06   6.21e-06     
    19     2.55e-06   2.20e-06     
    20     9.38e-07   2.96e-07     
 ------------------------------------------------------------------------------
                                   Orbital response converged.

 EOMIP-CCSD calculation:   CPU 4201.13 s  wall 2516.08 s

 Transferring MO TPDM to AO TPDM
 Transferring g2_o1o1o1o1
 Transferring g2_o1o1o1v1
 Transferring g2_o1o1v1v1
 Transferring g2_o1v1o1v1
 Transferring g2_o1v1v1v1
 Transferring g2_v1v1v1v1
 Adding separable TPDM
 Computing TPDM gradient
 --------------------------------------------------------
 2e gradient
  Atom          X               Y               Z
 --------------------------------------------------------
    1          5.516062        0.000000       -2.404706  
    2          9.613097       -0.000000        4.161051  
    3          7.543516        0.000000        5.120144  
    4          4.592379        0.000000        2.957574  
    5         -0.000000       -0.000000       10.493532  
    6          0.000000       -0.000000        5.238161  
    7         -7.543516        0.000000        5.120144  
    8         -4.592379       -0.000000        2.957574  
    9         -9.613097       -0.000000        4.161051  
   10         -5.516062       -0.000000       -2.404706  
   11          0.000000        0.000000        8.816162  
   12         -0.000000        0.000000      -44.215979  
 --------------------------------------------------------
 --------------------------------------------------------
 Final gradient
  Atom          X               Y               Z
 --------------------------------------------------------
    1          5.516062        0.000000       -2.404706  
    2          9.613097       -0.000000        4.161051  
    3          7.543516        0.000000        5.120144  
    4          4.592379        0.000000        2.957574  
    5         -0.000000       -0.000000       10.493532  
    6          0.000000       -0.000000        5.238161  
    7         -7.543516        0.000000        5.120144  
    8         -4.592379       -0.000000        2.957574  
    9         -9.613097       -0.000000        4.161051  
   10         -5.516062       -0.000000       -2.404706  
   11          0.000000        0.000000        8.816162  
   12         -0.000000        0.000000      -44.215979  
 --------------------------------------------------------
 Analytic gradient from two-electron contribution:   CPU 135380.54 s  wall 18789.71 s

 Total ccman2 time:   CPU 144140.58 s  wall 22235.48 s


 --------------------------------------------------------------
             Orbital Energies (a.u.) and Symmetries
 --------------------------------------------------------------

 Alpha MOs, Unrestricted
 -- Occupied --                  
-490.03  -65.17  -58.52  -11.30  -11.26  -11.25  -11.25   -9.84
  1 A1    2 A1    3 A1    4 A1    5 A1    6 A1    7 A1    8 A1                 
 -7.453 -58.521 -11.256 -11.253  -7.446 -58.521  -7.446  -3.197
  9 A1    1 B1    2 B1    3 B1    4 B1    1 B2    2 B2   10 A1                 
 -3.184  -1.167  -1.080  -0.980  -0.809  -0.707  -0.646  -0.584
 11 A1   12 A1   13 A1   14 A1   15 A1   16 A1   17 A1   18 A1                 
 -0.498  -3.184  -0.338  -3.193  -1.014  -0.847  -0.637  -0.587
 19 A1    1 A2    2 A2    5 B1    6 B1    7 B1    8 B1    9 B1                 
 -0.513  -0.420  -3.193  -0.528  -0.443  -0.338
 10 B1   11 B1    3 B2    4 B2    5 B2    6 B2                                 
 -- Virtual --                   
  0.135   0.163   0.179   0.204   0.313   0.373   0.394   0.409
 20 A1   21 A1   22 A1   23 A1   24 A1   25 A1   26 A1   27 A1                 
  0.476   0.494   0.542   0.558   0.581   0.613   0.641   0.678
 28 A1   29 A1   30 A1   31 A1   32 A1   33 A1   34 A1   35 A1                 
  0.718   0.755   0.791   0.902   0.940   0.982   1.047   1.068
 36 A1   37 A1   38 A1   39 A1   40 A1   41 A1   42 A1   43 A1                 
  1.126   1.232   1.287   1.325   1.365   1.459   1.538   1.609
 44 A1   45 A1   46 A1   47 A1   48 A1   49 A1   50 A1   51 A1                 
  1.643   1.680   1.733   1.855   1.868   2.012   2.090   2.160
 52 A1   53 A1   54 A1   55 A1   56 A1   57 A1   58 A1   59 A1                 
  2.192   2.298   2.379   2.419   2.584   2.641   2.678   2.767
 60 A1   61 A1   62 A1   63 A1   64 A1   65 A1   66 A1   67 A1                 
  2.798   2.985   3.052   3.115   3.159   3.257   3.299   3.327
 68 A1   69 A1   70 A1   71 A1   72 A1   73 A1   74 A1   75 A1                 
  3.374   3.389   3.420   3.443   3.570   3.601   3.745   3.887
 76 A1   77 A1   78 A1   79 A1   80 A1   81 A1   82 A1   83 A1                 
  3.903   3.980   4.078   4.107   4.190   4.277   4.424   4.461
 84 A1   85 A1   86 A1   87 A1   88 A1   89 A1   90 A1   91 A1                 
  4.481   4.542   4.655   4.675   4.740   4.824   4.975   5.010
 92 A1   93 A1   94 A1   95 A1   96 A1   97 A1   98 A1   99 A1                 
  5.169   5.321   5.408   5.448   5.827   5.970   6.070   6.461
100 A1  101 A1  102 A1  103 A1  104 A1  105 A1  106 A1  107 A1                 
  6.654   9.027  12.108  13.294  15.674   0.106   0.460   0.517
108 A1  109 A1  110 A1  111 A1  112 A1    3 A2    4 A2    5 A2                 
  0.593   0.829   0.857   0.952   1.184   1.282   1.467   1.581
  6 A2    7 A2    8 A2    9 A2   10 A2   11 A2   12 A2   13 A2                 
  1.708   1.946   2.061   2.443   2.532   2.621   2.934   3.037
 14 A2   15 A2   16 A2   17 A2   18 A2   19 A2   20 A2   21 A2                 
  3.062   3.229   3.371   3.439   3.458   3.625   3.665   3.772
[...]
      XXXX    -216.0932   XXXY      -0.0000   XXYY     -58.9791
      XYYY       0.0000   YYYY     -57.7162   XXXZ       0.0000
      XXYZ       0.0000   XYYZ      -0.0000   YYYZ       0.0000
      XXZZ    -177.0273   XYZZ       0.0000   YYZZ    -199.2888
      XZZZ      -0.0000   YZZZ       0.0000   ZZZZ    -797.5035
 -----------------------------------------------------------------
 DrvMan completing analytic gradient of the correlated energy
 Correlated dipole moment
            1
    1  -0.0000000
    2   0.0000000
    3  -2.6992353
 Energy read as -2803.503303146
 Full Analytical Gradient: (in a.u., or Hartree/Bohr)
             1             2             3             4             5
    1    0.00000121    0.00009614    0.00002315    0.00002290   -0.00000000
    2    0.00000000   -0.00000000   -0.00000000    0.00000000   -0.00000000
    3    0.00003324   -0.00007934    0.00011110    0.00000250    0.00004903
             6             7             8             9            10
    1    0.00000000   -0.00002315   -0.00002290   -0.00009614   -0.00000121
    2   -0.00000000    0.00000000    0.00000000    0.00000000    0.00000000
    3   -0.00000956    0.00011110    0.00000250   -0.00007934    0.00003324
            11            12
    1   -0.00000000   -0.00000000
    2    0.00000000   -0.00000000
    3   -0.00013563   -0.00003886
 Gradient time:  CPU 1.81 s  wall 3.14 s
 Geometry Optimization Parameters
   NAtoms,    NIC,     NZ,  NCons,   NDum,   NFix, NCnnct, MaxDiis
       12      78       0       0       0       0       0       0

 Cartesian Hessian Update
 Hessian Updated using BFGS Update


** GEOMETRY OPTIMIZATION IN DELOCALIZED INTERNAL COORDINATES **
   Searching for a Minimum

   Optimization Cycle:   4

                       Coordinates (Angstroms)
     ATOM                X               Y               Z
      1  H        -2.1384774911    0.0000000000   -0.1696452001
      2  C        -1.1899301707    0.0000000000   -0.6888298752
      3  C        -1.1860257460    0.0000000000   -2.1332324269
      4  H        -2.1391940670    0.0000000000   -2.6441137630
      5  C         0.0000000000    0.0000000000   -2.8493278239
      6  H         0.0000000000    0.0000000000   -3.9278124125
      7  C         1.1860257460    0.0000000000   -2.1332324269
      8  H         2.1391940670    0.0000000000   -2.6441137630
      9  C         1.1899301707    0.0000000000   -0.6888298752
     10  H         2.1384774911    0.0000000000   -0.1696452001
     11  C         0.0000000000    0.0000000000    0.0269576114
     12  Br        0.0000000000    0.0000000000    1.8900817152
   Point Group: c2v   Number of degrees of freedom:    11


   Energy is  -2803.503303146

 Hessian Updated using BFGS Update

 11 Hessian modes will be used to form the next step
  Hessian Eigenvalues:
     0.126799    0.160547    0.220467    0.239003    0.346280    0.358397
     0.359013    0.360937    0.418609    0.457207    0.498425

 Minimum Search - Taking Simple RFO Step
 Searching for Lamda that Minimizes Along All modes
 Value Taken    Lamda =   0.00000000
 Step Taken.  Stepsize is  0.000820

                             Maximum     Tolerance    Cnvgd?
         Gradient           0.000229      0.000300     YES
         Displacement       0.000495      0.001200     YES
         Energy change     -0.000027      0.000001      NO


                       Distance Matrix (Angstroms)
             H (  1)   C (  2)   C (  3)   H (  4)   C (  5)   H (  6)
   C (  2)  1.081339
   C (  3)  2.182393  1.444408
   H (  4)  2.474469  2.173531  1.081448
   C (  5)  3.428379  2.466513  1.385442  2.149015
   H (  6)  4.323992  3.450644  2.151087  2.494801  1.078485
   C (  7)  3.861087  2.780551  2.372051  3.364236  1.385442  2.151087
   H (  8)  4.941808  3.860855  3.364236  4.278388  2.149015  2.494801
   C (  9)  3.368657  2.379860  2.780551  3.860855  2.466513  3.450644
   H ( 10)  4.276955  3.368657  3.861087  4.941808  3.428379  4.323992
   C ( 11)  2.147496  1.388627  2.464362  3.422101  2.876285  3.954770
   Br( 12)  2.969101  2.840197  4.194486  5.013490  4.739410  5.817894
             C (  7)   H (  8)   C (  9)   H ( 10)   C ( 11)
   H (  8)  1.081448
   C (  9)  1.444408  2.173531
   H ( 10)  2.182393  2.474469  1.081339
   C ( 11)  2.464362  3.422101  1.388627  2.147496
   Br( 12)  4.194486  5.013490  2.840197  2.969101  1.863124

 Final energy is   -2803.5033031455500     


 ******************************
 **  OPTIMIZATION CONVERGED  **
 ******************************

                       Coordinates (Angstroms)
     ATOM                X               Y               Z
      1  H        -2.1384774911    0.0000000000   -0.1696452001
      2  C        -1.1899301707    0.0000000000   -0.6888298752
      3  C        -1.1860257460    0.0000000000   -2.1332324269
      4  H        -2.1391940670    0.0000000000   -2.6441137630
      5  C         0.0000000000    0.0000000000   -2.8493278239
      6  H         0.0000000000    0.0000000000   -3.9278124125
      7  C         1.1860257460    0.0000000000   -2.1332324269
      8  H         2.1391940670    0.0000000000   -2.6441137630
      9  C         1.1899301707    0.0000000000   -0.6888298752
     10  H         2.1384774911    0.0000000000   -0.1696452001
     11  C         0.0000000000    0.0000000000    0.0269576114
     12  Br        0.0000000000    0.0000000000    1.8900817152

Z-matrix Print:
$molecule
0 1
Br
C  1 1.863124
C  2 1.388627 1 121.028482
H  3 1.081339 2 120.277552 1 -0.000000 0
C  2 1.388627 1 121.028482 3 -180.000000 0
H  5 1.081339 2 120.277552 1 -0.000000 0
C  3 1.444408 2 120.873603 1 -180.000000 0
H  7 1.081448 3 118.035642 2 -180.000000 0
C  7 1.385442 3 121.277504 2 -0.000000 0
H  9 1.078485 7 121.122625 3 -180.000000 0
C  9 1.385442 7 117.754749 3 -0.000000 0
H  11 1.081448 9 120.686855 7 -180.000000 0
$end


 --------------------------------------------------------------
             Orbital Energies (a.u.) and Symmetries
 --------------------------------------------------------------

 Alpha MOs, Unrestricted
 -- Occupied --                  
-490.03  -65.17  -58.52  -11.30  -11.26  -11.25  -11.25   -9.84
  1 A1    2 A1    3 A1    4 A1    5 A1    6 A1    7 A1    8 A1                 
 -7.452 -58.520 -11.255 -11.253  -7.445 -58.520  -7.445  -3.196
  9 A1    1 B1    2 B1    3 B1    4 B1    1 B2    2 B2   10 A1                 
 -3.183  -1.169  -1.079  -0.980  -0.810  -0.707  -0.646  -0.584
 11 A1   12 A1   13 A1   14 A1   15 A1   16 A1   17 A1   18 A1                 
 -0.494  -3.183  -0.337  -3.192  -1.014  -0.847  -0.638  -0.587
 19 A1    1 A2    2 A2    5 B1    6 B1    7 B1    8 B1    9 B1                 
 -0.517  -0.419  -3.192  -0.529  -0.442  -0.339
 10 B1   11 B1    3 B2    4 B2    5 B2    6 B2                                 
 -- Virtual --                   
  0.135   0.163   0.179   0.204   0.314   0.372   0.391   0.410
 20 A1   21 A1   22 A1   23 A1   24 A1   25 A1   26 A1   27 A1                 
  0.477   0.494   0.543   0.557   0.579   0.613   0.640   0.678
 28 A1   29 A1   30 A1   31 A1   32 A1   33 A1   34 A1   35 A1                 
  0.719   0.756   0.791   0.904   0.941   0.982   1.047   1.069
 36 A1   37 A1   38 A1   39 A1   40 A1   41 A1   42 A1   43 A1                 
  1.121   1.236   1.285   1.320   1.365   1.463   1.539   1.610
 44 A1   45 A1   46 A1   47 A1   48 A1   49 A1   50 A1   51 A1                 
  1.640   1.683   1.737   1.851   1.872   2.016   2.087   2.156
 52 A1   53 A1   54 A1   55 A1   56 A1   57 A1   58 A1   59 A1                 
  2.191   2.286   2.356   2.440   2.585   2.655   2.678   2.765
 60 A1   61 A1   62 A1   63 A1   64 A1   65 A1   66 A1   67 A1                 
  2.799   2.986   3.048   3.114   3.156   3.258   3.300   3.329
 68 A1   69 A1   70 A1   71 A1   72 A1   73 A1   74 A1   75 A1                 
  3.374   3.391   3.421   3.444   3.570   3.605   3.743   3.881
 76 A1   77 A1   78 A1   79 A1   80 A1   81 A1   82 A1   83 A1                 
  3.910   3.977   4.077   4.119   4.185   4.273   4.425   4.455
 84 A1   85 A1   86 A1   87 A1   88 A1   89 A1   90 A1   91 A1                 
  4.492   4.549   4.657   4.676   4.746   4.821   4.973   5.003
 92 A1   93 A1   94 A1   95 A1   96 A1   97 A1   98 A1   99 A1                 
  5.174   5.319   5.428   5.459   5.839   5.964   6.065   6.443
100 A1  101 A1  102 A1  103 A1  104 A1  105 A1  106 A1  107 A1                 
  6.668   9.011  12.132  13.390  15.714   0.105   0.460   0.517
108 A1  109 A1  110 A1  111 A1  112 A1    3 A2    4 A2    5 A2                 
  0.594   0.831   0.854   0.950   1.188   1.285   1.466   1.578
  6 A2    7 A2    8 A2    9 A2   10 A2   11 A2   12 A2   13 A2                 
  1.708   1.945   2.062   2.441   2.532   2.624   2.937   3.040
 14 A2   15 A2   16 A2   17 A2   18 A2   19 A2   20 A2   21 A2                 
  3.062   3.228   3.367   3.436   3.458   3.618   3.667   3.782
 22 A2   23 A2   24 A2   25 A2   26 A2   27 A2   28 A2   29 A2                 
  3.948   4.060   4.133   4.198   4.365   4.582   4.641   5.082
 30 A2   31 A2   32 A2   33 A2   34 A2   35 A2   36 A2   37 A2                 
  5.113   5.342   0.166   0.206   0.321   0.371   0.403   0.459
 38 A2   39 A2   12 B1   13 B1   14 B1   15 B1   16 B1   17 B1                 
  0.512   0.563   0.592   0.637   0.669   0.707   0.786   0.869
 18 B1   19 B1   20 B1   21 B1   22 B1   23 B1   24 B1   25 B1                 
  0.923   0.975   1.022   1.087   1.232   1.357   1.379   1.478
 26 B1   27 B1   28 B1   29 B1   30 B1   31 B1   32 B1   33 B1                 
  1.496   1.500   1.561   1.612   1.712   1.743   1.864   2.097
 34 B1   35 B1   36 B1   37 B1   38 B1   39 B1   40 B1   41 B1                 
  2.133   2.226   2.296   2.400   2.516   2.650   2.728   2.783
 42 B1   43 B1   44 B1   45 B1   46 B1   47 B1   48 B1   49 B1                 
  2.904   2.975   3.036   3.127   3.288   3.333   3.369   3.410
 50 B1   51 B1   52 B1   53 B1   54 B1   55 B1   56 B1   57 B1                 
  3.422   3.516   3.675   3.680   3.718   3.942   4.070   4.104
 58 B1   59 B1   60 B1   61 B1   62 B1   63 B1   64 B1   65 B1                 
  4.125   4.219   4.339   4.450   4.481   4.522   4.632   4.678
 66 B1   67 B1   68 B1   69 B1   70 B1   71 B1   72 B1   73 B1                 
  4.852   5.057   5.103   5.283   5.369   5.506   5.548   5.855
 74 B1   75 B1   76 B1   77 B1   78 B1   79 B1   80 B1   81 B1                 
  6.173   6.254   6.351   7.067  13.085  13.272   0.115   0.300
 82 B1   83 B1   84 B1   85 B1   86 B1   87 B1    7 B2    8 B2                 
  0.393   0.432   0.476   0.568   0.581   0.663   0.744   0.898
  9 B2   10 B2   11 B2   12 B2   13 B2   14 B2   15 B2   16 B2                 
  1.043   1.158   1.203   1.245   1.424   1.508   1.695   1.776
 17 B2   18 B2   19 B2   20 B2   21 B2   22 B2   23 B2   24 B2                 
  1.964   2.087   2.249   2.326   2.460   2.538   2.805   2.819
 25 B2   26 B2   27 B2   28 B2   29 B2   30 B2   31 B2   32 B2                 
  2.955   2.995   3.009   3.129   3.208   3.249   3.441   3.477
 33 B2   34 B2   35 B2   36 B2   37 B2   38 B2   39 B2   40 B2                 
  3.624   3.649   3.727   3.938   4.052   4.127   4.170   4.378
 41 B2   42 B2   43 B2   44 B2   45 B2   46 B2   47 B2   48 B2                 
  4.474   4.626   4.640   5.004   5.032   5.226   5.683
 49 B2   50 B2   51 B2   52 B2   53 B2   54 B2   55 B2                         

 Beta MOs, Unrestricted
 -- Occupied --                  
-490.03  -65.17  -58.52  -11.30  -11.26  -11.25  -11.25   -9.84
  1 A1    2 A1    3 A1    4 A1    5 A1    6 A1    7 A1    8 A1                 
 -7.452 -58.520 -11.255 -11.253  -7.445 -58.520  -7.445  -3.196
  9 A1    1 B1    2 B1    3 B1    4 B1    1 B2    2 B2   10 A1                 
 -3.183  -1.169  -1.079  -0.980  -0.810  -0.707  -0.646  -0.584
 11 A1   12 A1   13 A1   14 A1   15 A1   16 A1   17 A1   18 A1                 
 -0.494  -3.183  -0.337  -3.192  -1.014  -0.847  -0.638  -0.587
 19 A1    1 A2    2 A2    5 B1    6 B1    7 B1    8 B1    9 B1                 
 -0.517  -0.419  -3.192  -0.529  -0.442  -0.339
 10 B1   11 B1    3 B2    4 B2    5 B2    6 B2                                 
 -- Virtual --                   
  0.135   0.163   0.179   0.204   0.314   0.372   0.391   0.410
 20 A1   21 A1   22 A1   23 A1   24 A1   25 A1   26 A1   27 A1                 
  0.477   0.494   0.543   0.557   0.579   0.613   0.640   0.678
 28 A1   29 A1   30 A1   31 A1   32 A1   33 A1   34 A1   35 A1                 
  0.719   0.756   0.791   0.904   0.941   0.982   1.047   1.069
 36 A1   37 A1   38 A1   39 A1   40 A1   41 A1   42 A1   43 A1                 
  1.121   1.236   1.285   1.320   1.365   1.463   1.539   1.610
 44 A1   45 A1   46 A1   47 A1   48 A1   49 A1   50 A1   51 A1                 
  1.640   1.683   1.737   1.851   1.872   2.016   2.087   2.156
 52 A1   53 A1   54 A1   55 A1   56 A1   57 A1   58 A1   59 A1                 
  2.191   2.286   2.356   2.440   2.585   2.655   2.678   2.765
 60 A1   61 A1   62 A1   63 A1   64 A1   65 A1   66 A1   67 A1                 
  2.799   2.986   3.048   3.114   3.156   3.258   3.300   3.329
 68 A1   69 A1   70 A1   71 A1   72 A1   73 A1   74 A1   75 A1                 
  3.374   3.391   3.421   3.444   3.570   3.605   3.743   3.881
 76 A1   77 A1   78 A1   79 A1   80 A1   81 A1   82 A1   83 A1                 
  3.910   3.977   4.077   4.119   4.185   4.273   4.425   4.455
 84 A1   85 A1   86 A1   87 A1   88 A1   89 A1   90 A1   91 A1                 
  4.492   4.549   4.657   4.676   4.746   4.821   4.973   5.003
 92 A1   93 A1   94 A1   95 A1   96 A1   97 A1   98 A1   99 A1                 
  5.174   5.319   5.428   5.459   5.839   5.964   6.065   6.443
100 A1  101 A1  102 A1  103 A1  104 A1  105 A1  106 A1  107 A1                 
  6.668   9.011  12.132  13.390  15.714   0.105   0.460   0.517
108 A1  109 A1  110 A1  111 A1  112 A1    3 A2    4 A2    5 A2                 
  0.594   0.831   0.854   0.950   1.188   1.285   1.466   1.578
  6 A2    7 A2    8 A2    9 A2   10 A2   11 A2   12 A2   13 A2                 
  1.708   1.945   2.062   2.441   2.532   2.624   2.937   3.040
 14 A2   15 A2   16 A2   17 A2   18 A2   19 A2   20 A2   21 A2                 
  3.062   3.228   3.367   3.436   3.458   3.618   3.667   3.782
 22 A2   23 A2   24 A2   25 A2   26 A2   27 A2   28 A2   29 A2                 
  3.948   4.060   4.133   4.198   4.365   4.582   4.641   5.082
 30 A2   31 A2   32 A2   33 A2   34 A2   35 A2   36 A2   37 A2                 
  5.113   5.342   0.166   0.206   0.321   0.371   0.403   0.459
 38 A2   39 A2   12 B1   13 B1   14 B1   15 B1   16 B1   17 B1                 
  0.512   0.563   0.592   0.637   0.669   0.707   0.786   0.869
 18 B1   19 B1   20 B1   21 B1   22 B1   23 B1   24 B1   25 B1                 
  0.923   0.975   1.022   1.087   1.232   1.357   1.379   1.478
 26 B1   27 B1   28 B1   29 B1   30 B1   31 B1   32 B1   33 B1                 
  1.496   1.500   1.561   1.612   1.712   1.743   1.864   2.097
 34 B1   35 B1   36 B1   37 B1   38 B1   39 B1   40 B1   41 B1                 
  2.133   2.226   2.296   2.400   2.516   2.650   2.728   2.783
 42 B1   43 B1   44 B1   45 B1   46 B1   47 B1   48 B1   49 B1                 
  2.904   2.975   3.036   3.127   3.288   3.333   3.369   3.410
 50 B1   51 B1   52 B1   53 B1   54 B1   55 B1   56 B1   57 B1                 
  3.422   3.516   3.675   3.680   3.718   3.942   4.070   4.104
 58 B1   59 B1   60 B1   61 B1   62 B1   63 B1   64 B1   65 B1                 
  4.125   4.219   4.339   4.450   4.481   4.522   4.632   4.678
 66 B1   67 B1   68 B1   69 B1   70 B1   71 B1   72 B1   73 B1                 
  4.852   5.057   5.103   5.283   5.369   5.506   5.548   5.855
 74 B1   75 B1   76 B1   77 B1   78 B1   79 B1   80 B1   81 B1                 
  6.173   6.254   6.351   7.067  13.085  13.272   0.115   0.300
 82 B1   83 B1   84 B1   85 B1   86 B1   87 B1    7 B2    8 B2                 
  0.393   0.432   0.476   0.568   0.581   0.663   0.744   0.898
  9 B2   10 B2   11 B2   12 B2   13 B2   14 B2   15 B2   16 B2                 
  1.043   1.158   1.203   1.245   1.424   1.508   1.695   1.776
 17 B2   18 B2   19 B2   20 B2   21 B2   22 B2   23 B2   24 B2                 
  1.964   2.087   2.249   2.326   2.460   2.538   2.805   2.819
 25 B2   26 B2   27 B2   28 B2   29 B2   30 B2   31 B2   32 B2                 
  2.955   2.995   3.009   3.129   3.208   3.249   3.441   3.477
 33 B2   34 B2   35 B2   36 B2   37 B2   38 B2   39 B2   40 B2                 
  3.624   3.649   3.727   3.938   4.052   4.127   4.170   4.378
 41 B2   42 B2   43 B2   44 B2   45 B2   46 B2   47 B2   48 B2                 
  4.474   4.626   4.640   5.004   5.032   5.226   5.683
 49 B2   50 B2   51 B2   52 B2   53 B2   54 B2   55 B2                         
 --------------------------------------------------------------

          Ground-State Mulliken Net Atomic Charges

     Atom                 Charge (a.u.)    Spin (a.u.)
  --------------------------------------------------------
      1 H                     0.233961       0.013296
      2 C                    -0.033668      -0.331743
      3 C                    -0.010792      -0.314521
      4 H                     0.228015       0.013958
      5 C                    -0.133526       0.115403
      6 H                     0.222946      -0.003849
      7 C                    -0.010792      -0.314521
      8 H                     0.228015       0.013958
      9 C                    -0.033668      -0.331743
     10 H                     0.233961       0.013296
     11 C                    -0.022828       0.122225
     12 Br                    0.098373       0.004241
  --------------------------------------------------------
  Sum of atomic charges =     1.000000
  Sum of spin   charges =    -1.000000

 -----------------------------------------------------------------
                    Cartesian Multipole Moments
 -----------------------------------------------------------------
    Charge (ESU x 10^10)
                 4.8032
    Dipole Moment (Debye)
         X      -0.0000      Y       0.0000      Z      -6.8608
       Tot       6.8608
    Quadrupole Moments (Debye-Ang)
        XX     -36.0233     XY       0.0000     YY     -52.7623
        XZ       0.0000     YZ       0.0000     ZZ     -26.1425
    Octopole Moments (Debye-Ang^2)
       XXX      -0.0000    XXY      -0.0000    XYY      -0.0000
       YYY       0.0000    XXZ      -7.7859    XYZ       0.0000
       YYZ      16.3668    XZZ       0.0000    YZZ       0.0000
       ZZZ      -9.4658
    Hexadecapole Moments (Debye-Ang^3)
      XXXX    -216.0932   XXXY      -0.0000   XXYY     -58.9791
      XYYY       0.0000   YYYY     -57.7162   XXXZ       0.0000
      XXYZ       0.0000   XYYZ      -0.0000   YYYZ       0.0000
      XXZZ    -177.0273   XYZZ       0.0000   YYZZ    -199.2888
      XZZZ      -0.0000   YZZZ       0.0000   ZZZZ    -797.5035
 -----------------------------------------------------------------
Archival summary:
1\1\node20\OPT\ProcedureUnspecified\BasisUnspecified\r165\krylov\SatSep2904:14:492018SatSep2904:14:492018\0\\#,OPT,ProcedureUnspecified,BasisUnspecified,\\0,1\Br\C,1,1.86312\C,2,1.38863,1,121.028\H,3,1.08134,2,120.278,1,-0,0\C,2,1.38863,1,121.028,3,-180,0\H,5,1.08134,2,120.278,1,-0,0\C,3,1.44441,2,120.874,1,-180,0\H,7,1.08145,3,118.036,2,-180,0\C,7,1.38544,3,121.278,2,-0,0\H,9,1.07848,7,121.123,3,-180,0\C,9,1.38544,7,117.755,3,-0,0\H,11,1.08145,9,120.687,7,-180,0\\HF=-2802.64873\\@

 Total job time:  89526.70s(wall), 577359.86s(cpu) 
 Sat Sep 29 04:14:49 2018

        *************************************************************
        *                                                           *
        *  Thank you very much for using Q-Chem.  Have a nice day.  *
        *                                                           *
        *************************************************************


