Q-Chem Developer Version!
                  Welcome to Q-Chem
     A Quantum Leap Into The Future Of Chemistry


 Q-Chem 5.1, Q-Chem, Inc., Pleasanton, CA (2018)

 Yihan Shao,  Zhengting Gan,  E. Epifanovsky,  A. T. B. Gilbert,  M. Wormit,  
 J. Kussmann,  A. W. Lange,  A. Behn,  Jia Deng,  Xintian Feng,  D. Ghosh,  
 M. Goldey,  P. R. Horn,  L. D. Jacobson,  I. Kaliman,  T. Kus,  A. Landau,  
 Jie Liu,  E. I. Proynov,  R. M. Richard,  R. P. Steele,  E. J. Sundstrom,  
 H. L. Woodcock III,  P. M. Zimmerman,  D. Zuev,  B. Albrecht,  E. Alguire,  
 S. A. Baeppler,  D. Barton,  Z. Benda,  Y. A. Bernard,  E. J. Berquist,  
 K. B. Bravaya,  H. Burton,  D. Casanova,  Chun-Min Chang,  Yunqing Chen,  
 A. Chien,  K. D. Closser,  M. P. Coons,  S. Coriani,  S. Dasgupta,  
 A. L. Dempwolff,  M. Diedenhofen,  Hainam Do,  R. G. Edgar,  Po-Tung Fang,  
 S. Faraji,  S. Fatehi,  Qingguo Feng,  K. D. Fenk,  J. Fosso-Tande,  
 Qinghui Ge,  A. Ghysels,  G. Gidofalvi,  J. Gomes,  J. Gonthier,  A. Gunina,  
 D. Hait,  M. W. D. Hanson-Heine,  P. H. P. Harbach,  A. W. Hauser,  
 J. E. Herr,  E. G. Hohenstein,  Z. C. Holden,  Kerwin Hui,  B. C. Huynh,  
 T.-C. Jagau,  Hyunjun Ji,  B. Kaduk,  K. Khistyaev,  Jaehoon Kim,  
 P. Klunzinger,  K. Koh,  D. Kosenkov,  L. Koulias,  T. Kowalczyk,  
 C. M. Krauter,  A. Kunitsa,  Ka Un Lao,  A. Laurent,  K. V. Lawler,  
 Joonho Lee,  D. Lefrancois,  S. Lehtola,  D. S. Levine,  Yi-Pei Li,  
 You-Sheng Lin,  Fenglai Liu,  E. Livshits,  A. Luenser,  P. Manohar,  
 E. Mansoor,  S. F. Manzer,  Shan-Ping Mao,  Yuezhi Mao,  N. Mardirossian,  
 A. V. Marenich,  T. Markovich,  L. A. Martinez-Martinez,  S. A. Maurer,  
 N. J. Mayhall,  S. C. McKenzie,  J.-M. Mewes,  A. F. Morrison,  
 J. W. Mullinax,  K. Nanda,  T. S. Nguyen-Beck,  R. Olivares-Amaya,  
 J. A. Parkhill,  T. M. Perrine,  F. Plasser,  P. Pokhilko,  S. Prager,  
 A. Prociuk,  E. Ramos,  D. R. Rehn,  F. Rob,  M. Schneider,  N. Sergueev,  
 S. M. Sharada,  S. Sharma,  D. W. Small,  T. Stauch,  T. Stein,  
 Yu-Chuan Su,  A. J. W. Thom,  A. Tkatchenko,  T. Tsuchimochi,  N. M. Tubman,  
 L. Vogt,  M. L. Vidal,  O. Vydrov,  M. A. Watson,  J. Wenzel,  
 M. de Wergifosse,  T. A. Wesolowski,  A. White,  J. Witte,  A. Yamada,  
 Jun Yang,  K. Yao,  S. Yeganeh,  S. R. Yost,  Zhi-Qiang You,  A. Zech,  
 Igor Ying Zhang,  Xing Zhang,  Yan Zhao,  Ying Zhu,  B. R. Brooks,  
 G. K. L. Chan,  C. J. Cramer,  M. S. Gordon,  W. J. Hehre,  A. Klamt,  
 M. W. Schmidt,  C. D. Sherrill,  D. G. Truhlar,  A. Aspuru-Guzik,  R. Baer,  
 A. T. Bell,  N. A. Besley,  Jeng-Da Chai,  A. E. DePrince, III,  
 R. A. DiStasio Jr.,  A. Dreuw,  B. D. Dunietz,  T. R. Furlani,  
 Chao-Ping Hsu,  Yousung Jung,  Jing Kong,  D. S. Lambrecht,  WanZhen Liang,  
 C. Ochsenfeld,  V. A. Rassolov,  L. V. Slipchenko,  J. E. Subotnik,  
 T. Van Voorhis,  J. M. Herbert,  A. I. Krylov,  P. M. W. Gill,  M. Head-Gordon

 Contributors to earlier versions of Q-Chem not listed above: 
 R. D. Adamson,  B. Austin,  J. Baker,  G. J. O. Beran,  K. Brandhorst,  
 S. T. Brown,  E. F. C. Byrd,  A. K. Chakraborty,  C.-L. Cheng,  
 Siu Hung Chien,  D. M. Chipman,  D. L. Crittenden,  H. Dachsel,  
 R. J. Doerksen,  A. D. Dutoi,  L. Fusti-Molnar,  W. A. Goddard III,  
 A. Golubeva-Zadorozhnaya,  S. R. Gwaltney,  G. Hawkins,  A. Heyden,  
 S. Hirata,  G. Kedziora,  F. J. Keil,  C. Kelley,  Jihan Kim,  R. A. King,  
 R. Z. Khaliullin,  P. P. Korambath,  W. Kurlancheek,  A. M. Lee,  M. S. Lee,  
 S. V. Levchenko,  Ching Yeh Lin,  D. Liotard,  R. C. Lochan,  I. Lotan,  
 P. E. Maslen,  N. Nair,  D. P. O'Neill,  D. Neuhauser,  E. Neuscamman,  
 C. M. Oana,  R. Olson,  B. Peters,  R. Peverati,  P. A. Pieniazek,  
 Y. M. Rhee,  J. Ritchie,  M. A. Rohrdanz,  E. Rosta,  N. J. Russ,  
 H. F. Schaefer III,  N. E. Schultz,  N. Shenvi,  A. C. Simmonett,  A. Sodt,  
 D. Stuck,  K. S. Thanthiriwatte,  V. Vanovschi,  Tao Wang,  A. Warshel,  
 C. F. Williams,  Q. Wu,  X. Xu,  W. Zhang

 Please cite Q-Chem as follows:
 Y. Shao et al., Mol. Phys. 113, 184-215 (2015)
 DOI: 10.1080/00268976.2014.952696

 Q-Chem 5.1.1 for Intel X86 EM64T Linux

 Parts of Q-Chem use Armadillo 8.300.2 (Tropical Shenanigans).
 http://arma.sourceforge.net/

 Q-Chem begins on Thu Sep 27 01:13:04 2018  

node20
Host: 0

     Scratch files written to /scratch/krylov/qchem5594//
Core orbitals will be frozen
Input Ideriv = 1
Curr. Ideriv = -1
Max.  Ideriv = 1
EOM-IP/EA analytic gradients are available only for UHF references
Setting UNRESTRICTED=TRUE

Checking the input file for inconsistencies... 	...done.

--------------------------------------------------------------
User input:
--------------------------------------------------------------
$molecule
0 1
H        -2.1400320233    0.0000000000   -0.1495480158
C        -1.2120583232    0.0000000000   -0.7028148658
C        -1.2042956497    0.0000000000   -2.0947016297
H        -2.1437187877    0.0000000000   -2.6302428250
C         0.0000000000    0.0000000000   -2.7936988293
H         0.0000000000    0.0000000000   -3.8745528350
C         1.2042956497    0.0000000000   -2.0947016297
H         2.1437187877    0.0000000000   -2.6302428250
C         1.2120583232    0.0000000000   -0.7028148658
H         2.1400320233    0.0000000000   -0.1495480158
C         0.0000000000    0.0000000000   -0.0199042774
Br        0.0000000000    0.0000000000    1.7110271744
$end

$rem
   BASIS  = cc-pVTZ
   JOB_TYPE  =  OPT
   METHOD  =  EOM-CCSD
   SCF_CONVERGENCE  =  8
   IP_STATES = [0,0,0,1]
   CC_STATE_TO_OPT = [4,1]
   CC_MEMORY = 80000   
! use SP code 
  cc_single_prec=1
  eom_single_prec=1
  cc_sp_dm = 1
  cc_sp_t_conv = 4
  cc_sp_e_conv = 6
  cc_erase_dp_integrals = 1
$end

--------------------------------------------------------------
 ----------------------------------------------------------------
             Standard Nuclear Orientation (Angstroms)
    I     Atom           X                Y                Z
 ----------------------------------------------------------------
    1      H      -2.1400320233    -0.0000000000    -0.1495480158
    2      C      -1.2120583232     0.0000000000    -0.7028148658
    3      C      -1.2042956497     0.0000000000    -2.0947016297
    4      H      -2.1437187877     0.0000000000    -2.6302428250
    5      C      -0.0000000000     0.0000000000    -2.7936988293
    6      H      -0.0000000000     0.0000000000    -3.8745528350
    7      C       1.2042956497     0.0000000000    -2.0947016297
    8      H       2.1437187877     0.0000000000    -2.6302428250
    9      C       1.2120583232     0.0000000000    -0.7028148658
   10      H       2.1400320233     0.0000000000    -0.1495480158
   11      C      -0.0000000000     0.0000000000    -0.0199042774
   12      Br      0.0000000000    -0.0000000000     1.7110271744
 ----------------------------------------------------------------
 Molecular Point Group                 C2v   NOp =  4
 Largest Abelian Subgroup              C2v   NOp =  4
 Nuclear Repulsion Energy =   445.4223579121 hartrees
 There are       38 alpha and       38 beta electrons
 Requested basis set is cc-pVTZ
 There are 105 shells and 293 basis functions
MEM_TOTAL is adjusted to CC_MEMORY + MEM_STATIC!
 Total memory of 80192MB is distributed as follows: 
   QALLOC including MEM_STATIC uses 192MB
   MEM_STATIC is set to 192MB
   CCMAN JOB total memory use is  80000MB
 Warning: actual memory use might exceed 80192MB

 Total QAlloc Memory Limit    192 MB
 Mega-Array Size       188 MB
 MEM_STATIC part       192 MB
 A cutoff of  1.0D-14 yielded   5246 shell pairs
 There are     41386 function pairs (     54043 Cartesian)

 -------------------------------------------------------
 OpenMP Integral Computing Module                       
 Release: version 1.0, May 2013, Q-Chem Inc. Pittsburgh 
 -------------------------------------------------------
 Integral Job Info:
 Integral job number is                      11
 Integral operator is                         1
 short-range coefficients                     0
 long-range coefficients              100000000
 Omega coefficients                           0
 if combine SR and LR in K                    0
 Integral screening is                        0
 Integral computing path is                   2
 max size of driver memory is            800000
 size of driver memory is                776718
 size of scratch memory is             26991800
 max col of scratch BK array              10000
 max len of scratch array in speh3          662
 max len of scratch index in speh4           32
 max int batch size is                      520
 min int batch size is                       52
 fixed nKL is                                 4
 max L of basis functions is                  3
 order of int derivative is                   0
 number of shells is                        105
 number of basis is                         334
 number of cartesian basis is               334
 number of contracted shell pairs          5246
 number of primitive shell pairs          24958
 maxK2 (contraction) of shell pair          225
 max number of K2 of shell pair               1
 max number of CS2 of shell pair            620
 max number of PS2 of shell pair           2250
 mem total for path MDJ                  651800
 -------------------------------------------------------
 Smallest overlap matrix eigenvalue = 3.45E-05

 Scale SEOQF with 1.000000e-01/1.000000e+00/1.000000e-01

 Standard Electronic Orientation quadrupole field applied
 Nucleus-field energy     =    -0.0000000235 hartrees
 Guess from superposition of atomic densities
 Warning:  Energy on first SCF cycle will be non-variational
 SAD guess density has 76.000000 electrons

 -----------------------------------------------------------------------
  General SCF calculation program by
  Eric Jon Sundstrom, Paul Horn, Yuezhi Mao, Dmitri Zuev, Alec White,
  David Stuck, Shaama M.S., Shane Yost, Joonho Lee, David Small,
  Daniel Levine, Susi Lehtola, Hugh Burton, Evgeny Epifanovsky
 -----------------------------------------------------------------------
 Hartree-Fock
 using 8 threads for integral computing
 -------------------------------------------------------
 OpenMP Integral computing Module                
 Release: version 2.0, May 2017, Q-Chem Inc. Pleasanton 
 -------------------------------------------------------
 A unrestricted SCF calculation will be
 performed using DIIS
 SCF converges when DIIS error is below 1.0e-08
 ---------------------------------------
  Cycle       Energy         DIIS error
 ---------------------------------------
    1   -2805.6797658476      1.72e-02  
    2   -2802.5644588848      1.11e-03  
    3   -2802.6308866641      4.71e-04  
    4   -2802.6394627202      2.26e-04  
    5   -2802.6421114693      4.18e-05  
    6   -2802.6422082814      1.19e-05  
    7   -2802.6422231960      4.13e-06  
    8   -2802.6422255186      1.70e-06  
    9   -2802.6422259981      6.90e-07  
   10   -2802.6422260769      3.26e-07  
   11   -2802.6422261098      1.22e-07  
   12   -2802.6422261128      3.54e-08  
   13   -2802.6422261124      7.26e-09  Convergence criterion met
 ---------------------------------------
 SCF time:   CPU 1450.44s  wall 183.00s 
<S^2> =          0.000000000
 SCF   energy in the final basis set =    -2802.6422261124
 Total energy in the final basis set =    -2802.6422261124


 ------------------------------------------------------------------------------

   CCMAN2: suite of methods based on coupled cluster
           and equation of motion theories.

   Components:
   * libvmm-1.3-trunk
     by Evgeny Epifanovsky, Ilya Kaliman.
   * libtensor-2.5-trunk
     by Evgeny Epifanovsky, Michael Wormit, Dmitry Zuev, Sam Manzer, 
        Ilya Kaliman.
   * libcc-2.5-trunk
     by Evgeny Epifanovsky, Arik Landau, Tomasz Kus, Kirill Khistyaev, 
        Dmitry Zuev, Prashant Manohar, Xintian Feng, Anna Krylov, 
        Matthew Goldey, Alec White, Thomas Jagau, Kaushik Nanda, 
        Anastasia Gunina, Alexander Kunitsa, Joonho Lee.

   CCMAN original authors:
   Anna I. Krylov, C. David Sherrill, Steven R. Gwaltney,
   Edward F. C. Byrd (2000)
   Sergey V. Levchenko, Lyudmila V. Slipchenko, Tao Wang,
   Ana-Maria C. Cristian (2003)
   Piotr A. Pieniazek, C. Melania Oana, Evgeny Epifanovsky (2007)
   Prashant Manohar (2009)

 ------------------------------------------------------------------------------


 Allocating and initializing 80000MB of RAM...
 Calculation will run on 8 cores.


 Alpha MOs, Unrestricted
 -- Occupied --                  
-490.02  -65.16  -58.52  -58.52  -58.52  -11.29  -11.25  -11.25
  1 A1    2 A1    3 A1    1 B2    1 B1    4 A1    5 A1    2 B1                 
-11.245 -11.245 -11.242  -9.838  -7.451  -7.444  -7.443  -3.194
  6 A1    3 B1    7 A1    8 A1    9 A1    2 B2    4 B1   10 A1                 
 -3.190  -3.190  -3.182  -3.182  -1.185  -1.097  -1.029  -0.971
  3 B2    5 B1    1 A2   11 A1   12 A1   13 A1    6 B1   14 A1                 
 -0.846  -0.812  -0.708  -0.646  -0.645  -0.601  -0.582  -0.541
  7 B1   15 A1   16 A1    8 B1   17 A1    9 B1   18 A1    4 B2                 
 -0.513  -0.503  -0.448  -0.415  -0.350  -0.321
 10 B1   19 A1    5 B2   11 B1    2 A2    6 B2                                 
 -- Virtual --                   
  0.113   0.114   0.140   0.166   0.174   0.191   0.205   0.208
  7 B2    3 A2   20 A1   12 B1   21 A1   22 A1   23 A1   13 B1                 
  0.300   0.312   0.316   0.375   0.386   0.394   0.397   0.412
  8 B2   24 A1   14 B1   15 B1   25 A1   26 A1    9 B2   16 B1                 
  0.421   0.435   0.453   0.468   0.475   0.484   0.500   0.512
 27 A1   10 B2    4 A2   17 B1   28 A1   11 B2   29 A1   18 B1                 
  0.516   0.547   0.556   0.566   0.579   0.580   0.587   0.591
  5 A2   30 A1   31 A1   12 B2   19 B1   13 B2   32 A1   20 B1                 
  0.598   0.616   0.640   0.645   0.670   0.675   0.684   0.724
  6 A2   33 A1   21 B1   34 A1   14 B2   22 B1   35 A1   23 B1                 
  0.727   0.762   0.765   0.800   0.806   0.844   0.849   0.869
 36 A1   15 B2   37 A1   38 A1   24 B1    7 A2    8 A2   25 B1                 
  0.917   0.919   0.921   0.955   0.962   0.991   0.998   1.020
 16 B2   26 B1   39 A1    9 A2   40 A1   27 B1   41 A1   28 B1                 
  1.056   1.057   1.093   1.103   1.111   1.171   1.197   1.205
 17 B2   42 A1   29 B1   43 A1   44 A1   18 B2   10 A2   19 B2                 
  1.227   1.249   1.259   1.280   1.288   1.329   1.375   1.376
 45 A1   30 B1   20 B2   11 A2   46 A1   47 A1   31 B1   48 A1                 
  1.378   1.442   1.477   1.477   1.483   1.498   1.512   1.526
 32 B1   21 B2   49 A1   12 A2   33 B1   34 B1   35 B1   22 B2                 
  1.547   1.570   1.578   1.602   1.616   1.634   1.674   1.714
 50 A1   36 B1   13 A2   51 A1   37 B1   52 A1   53 A1   23 B2                 
  1.719   1.725   1.731   1.755   1.780   1.881   1.914   1.917
 38 B1   14 A2   54 A1   39 B1   24 B2   55 A1   56 A1   40 B1                 
  1.967   1.977   2.054   2.070   2.103   2.107   2.108   2.142
 15 A2   25 B2   57 A1   16 A2   26 B2   58 A1   41 B1   42 B1                 
  2.187   2.203   2.206   2.259   2.305   2.330   2.336   2.343
 59 A1   43 B1   60 A1   27 B2   61 A1   62 A1   44 B1   28 B2                 
  2.415   2.443   2.461   2.480   2.549   2.556   2.573   2.595
 45 B1   17 A2   63 A1   29 B2   18 A2   30 B2   46 B1   64 A1                 
  2.655   2.657   2.676   2.742   2.743   2.766   2.775   2.829
 19 A2   47 B1   65 A1   66 A1   48 B1   67 A1   49 B1   31 B2                 
  2.843   2.843   2.911   2.948   2.950   2.998   2.998   3.007
 32 B2   68 A1   50 B1   33 B2   20 A2   34 B2   69 A1   51 B1                 
  3.018   3.042   3.047   3.065   3.078   3.112   3.154   3.168
 35 B2   70 A1   21 A2   52 B1   22 A2   71 A1   72 A1   53 B1                 
  3.192   3.218   3.225   3.262   3.278   3.315   3.325   3.347
 36 B2   37 B2   23 A2   38 B2   73 A1   54 B1   74 A1   55 B1                 
  3.370   3.375   3.391   3.393   3.415   3.429   3.437   3.440
 24 A2   56 B1   75 A1   76 A1   77 A1   25 A2   57 B1   78 A1                 
  3.458   3.459   3.465   3.480   3.498   3.531   3.629   3.631
 79 A1   26 A2   58 B1   39 B2   40 B2   59 B1   80 A1   41 B2                 
  3.639   3.649   3.650   3.667   3.679   3.686   3.727   3.729
 27 A2   81 A1   42 B2   60 B1   28 A2   61 B1   43 B2   62 B1                 
  3.759   3.788   3.895   3.925   3.966   3.975   3.980   3.991
 82 A1   29 A2   83 A1   84 A1   63 B1   44 B2   30 A2   85 A1                 
  4.072   4.094   4.104   4.118   4.125   4.140   4.144   4.145
 31 A2   45 B2   86 A1   64 B1   65 B1   46 B2   32 A2   87 A1                 
  4.168   4.181   4.196   4.204   4.244   4.312   4.368   4.373
 66 B1   47 B2   33 A2   88 A1   67 B1   89 A1   68 B1   48 B2                 
  4.407   4.434   4.452   4.493   4.499   4.510   4.515   4.536
 34 A2   90 A1   69 B1   49 B2   70 B1   91 A1   92 A1   71 B1                 
  4.589   4.612   4.653   4.659   4.670   4.672   4.694   4.695
 93 A1   35 A2   36 A2   50 B2   94 A1   72 B1   95 A1   51 B2                 
  4.701   4.796   4.884   4.982   5.028   5.034   5.056   5.079
 73 B1   96 A1   74 B1   97 A1   52 B2   98 A1   53 B2   75 B1                 
  5.100   5.107   5.135   5.139   5.241   5.283   5.312   5.349
 76 B1   37 A2   38 A2   99 A1   54 B2  100 A1   77 B1  101 A1                 
  5.369   5.381   5.442   5.491   5.522   5.589   5.726   5.908
 39 A2   78 B1  102 A1  103 A1   79 B1   80 B1   55 B2   81 B1                 
  5.921   6.033   6.079   6.280   6.302   6.423   6.462   6.757
104 A1  105 A1  106 A1   82 B1   83 B1   84 B1  107 A1  108 A1                 
  7.180   9.033  12.559  13.210  13.467  13.805  16.116
 85 B1  109 A1  110 A1   86 B1  111 A1   87 B1  112 A1                         

 Beta MOs, Unrestricted
 -- Occupied --                  
-490.02  -65.16  -58.52  -58.52  -58.52  -11.29  -11.25  -11.25
  1 A1    2 A1    3 A1    1 B2    1 B1    4 A1    5 A1    2 B1                 
-11.245 -11.245 -11.242  -9.838  -7.451  -7.444  -7.443  -3.194
  6 A1    3 B1    7 A1    8 A1    9 A1    2 B2    4 B1   10 A1                 
 -3.190  -3.190  -3.182  -3.182  -1.185  -1.097  -1.029  -0.971
  3 B2    5 B1    1 A2   11 A1   12 A1   13 A1    6 B1   14 A1                 
 -0.846  -0.812  -0.708  -0.646  -0.645  -0.601  -0.582  -0.541
  7 B1   15 A1   16 A1    8 B1   17 A1    9 B1   18 A1    4 B2                 
 -0.513  -0.503  -0.448  -0.415  -0.350  -0.321
 10 B1   19 A1    5 B2   11 B1    2 A2    6 B2                                 
 -- Virtual --                   
  0.113   0.114   0.140   0.166   0.174   0.191   0.205   0.208
  7 B2    3 A2   20 A1   12 B1   21 A1   22 A1   23 A1   13 B1                 
  0.300   0.312   0.316   0.375   0.386   0.394   0.397   0.412
  8 B2   24 A1   14 B1   15 B1   25 A1   26 A1    9 B2   16 B1                 
  0.421   0.435   0.453   0.468   0.475   0.484   0.500   0.512
 27 A1   10 B2    4 A2   17 B1   28 A1   11 B2   29 A1   18 B1                 
  0.516   0.547   0.556   0.566   0.579   0.580   0.587   0.591
  5 A2   30 A1   31 A1   12 B2   19 B1   13 B2   32 A1   20 B1                 
  0.598   0.616   0.640   0.645   0.670   0.675   0.684   0.724
  6 A2   33 A1   21 B1   34 A1   14 B2   22 B1   35 A1   23 B1                 
  0.727   0.762   0.765   0.800   0.806   0.844   0.849   0.869
 36 A1   15 B2   37 A1   38 A1   24 B1    7 A2    8 A2   25 B1                 
  0.917   0.919   0.921   0.955   0.962   0.991   0.998   1.020
 16 B2   26 B1   39 A1    9 A2   40 A1   27 B1   41 A1   28 B1                 
  1.056   1.057   1.093   1.103   1.111   1.171   1.197   1.205
 17 B2   42 A1   29 B1   43 A1   44 A1   18 B2   10 A2   19 B2                 
  1.227   1.249   1.259   1.280   1.288   1.329   1.375   1.376
 45 A1   30 B1   20 B2   11 A2   46 A1   47 A1   31 B1   48 A1                 
  1.378   1.442   1.477   1.477   1.483   1.498   1.512   1.526
 32 B1   21 B2   49 A1   12 A2   33 B1   34 B1   35 B1   22 B2                 
  1.547   1.570   1.578   1.602   1.616   1.634   1.674   1.714
 50 A1   36 B1   13 A2   51 A1   37 B1   52 A1   53 A1   23 B2                 
  1.719   1.725   1.731   1.755   1.780   1.881   1.914   1.917
 38 B1   14 A2   54 A1   39 B1   24 B2   55 A1   56 A1   40 B1                 
  1.967   1.977   2.054   2.070   2.103   2.107   2.108   2.142
 15 A2   25 B2   57 A1   16 A2   26 B2   58 A1   41 B1   42 B1                 
  2.187   2.203   2.206   2.259   2.305   2.330   2.336   2.343
 59 A1   43 B1   60 A1   27 B2   61 A1   62 A1   44 B1   28 B2                 
  2.415   2.443   2.461   2.480   2.549   2.556   2.573   2.595
 45 B1   17 A2   63 A1   29 B2   18 A2   30 B2   46 B1   64 A1                 
  2.655   2.657   2.676   2.742   2.743   2.766   2.775   2.829
 19 A2   47 B1   65 A1   66 A1   48 B1   67 A1   49 B1   31 B2                 
  2.843   2.843   2.911   2.948   2.950   2.998   2.998   3.007
 32 B2   68 A1   50 B1   33 B2   20 A2   34 B2   69 A1   51 B1                 
  3.018   3.042   3.047   3.065   3.078   3.112   3.154   3.168
 35 B2   70 A1   21 A2   52 B1   22 A2   71 A1   72 A1   53 B1                 
  3.192   3.218   3.225   3.262   3.278   3.315   3.325   3.347
 36 B2   37 B2   23 A2   38 B2   73 A1   54 B1   74 A1   55 B1                 
  3.370   3.375   3.391   3.393   3.415   3.429   3.437   3.440
 24 A2   56 B1   75 A1   76 A1   77 A1   25 A2   57 B1   78 A1                 
  3.458   3.459   3.465   3.480   3.498   3.531   3.629   3.631
 79 A1   26 A2   58 B1   39 B2   40 B2   59 B1   80 A1   41 B2                 
  3.639   3.649   3.650   3.667   3.679   3.686   3.727   3.729
 27 A2   81 A1   42 B2   60 B1   28 A2   61 B1   43 B2   62 B1                 
  3.759   3.788   3.895   3.925   3.966   3.975   3.980   3.991
 82 A1   29 A2   83 A1   84 A1   63 B1   44 B2   30 A2   85 A1                 
  4.072   4.094   4.104   4.118   4.125   4.140   4.144   4.145
 31 A2   45 B2   86 A1   64 B1   65 B1   46 B2   32 A2   87 A1                 
  4.168   4.181   4.196   4.204   4.244   4.312   4.368   4.373
 66 B1   47 B2   33 A2   88 A1   67 B1   89 A1   68 B1   48 B2                 
  4.407   4.434   4.452   4.493   4.499   4.510   4.515   4.536
 34 A2   90 A1   69 B1   49 B2   70 B1   91 A1   92 A1   71 B1                 
  4.589   4.612   4.653   4.659   4.670   4.672   4.694   4.695
 93 A1   35 A2   36 A2   50 B2   94 A1   72 B1   95 A1   51 B2                 
  4.701   4.796   4.884   4.982   5.028   5.034   5.056   5.079
 73 B1   96 A1   74 B1   97 A1   52 B2   98 A1   53 B2   75 B1                 
  5.100   5.107   5.135   5.139   5.241   5.283   5.312   5.349
 76 B1   37 A2   38 A2   99 A1   54 B2  100 A1   77 B1  101 A1                 
  5.369   5.381   5.442   5.491   5.522   5.589   5.726   5.908
 39 A2   78 B1  102 A1  103 A1   79 B1   80 B1   55 B2   81 B1                 
  5.921   6.033   6.079   6.280   6.302   6.423   6.462   6.757
104 A1  105 A1  106 A1   82 B1   83 B1   84 B1  107 A1  108 A1                 
  7.180   9.033  12.559  13.210  13.467  13.805  16.116
 85 B1  109 A1  110 A1   86 B1  111 A1   87 B1  112 A1                         

 Occupation and symmetry of molecular orbitals

 Point group: C2v (4 irreducible representations).

                           A1   A2   B1   B2    All 
 ----------------------------------------------------
 All molecular orbitals:
  - Alpha                  112  39   87   55    293 
  - Beta                   112  39   87   55    293 
 ----------------------------------------------------
 Alpha orbitals:
  - Frozen occupied        9    0    4    2     15  
  - Active occupied        10   2    7    4     23  
  - Active virtual         93   37   76   49    255 
  - Frozen virtual         0    0    0    0     0   
 ----------------------------------------------------
 Beta orbitals:
  - Frozen occupied        9    0    4    2     15  
  - Active occupied        10   2    7    4     23  
  - Active virtual         93   37   76   49    255 
  - Frozen virtual         0    0    0    0     0   
 ----------------------------------------------------

 Import integrals:   CPU 0.00 s  wall 0.00 s

 Import integrals:   CPU 2530.25 s  wall 358.35 s

 MP2 amplitudes:   CPU 11.52 s  wall 2.04 s

Running a single precision version
I will use integrals, stored in single precision format
           CCSD T amplitudes will be solved using DIIS.

           Start     Size      MaxIter   EConv     TConv     
           3         7         100       1.00e-06  1.00e-04  
 ------------------------------------------------------------------------------
           Energy (a.u.)   Ediff      Tdiff       Comment
 ------------------------------------------------------------------------------
         -2803.81672312                           
     1   -2803.80149636   1.52e-02   1.04e+00     
     2   -2803.83662172   3.51e-02   1.46e-01     
     3   -2803.83502491   1.60e-03   5.04e-02     
     4   -2803.83789647   2.87e-03   1.44e-02     Switched to DIIS steps.
     5   -2803.83877801   8.82e-04   1.08e-02     
     6   -2803.83880331   2.53e-05   2.02e-03     
     7   -2803.83879000   1.33e-05   1.01e-03     
     8   -2803.83878950   4.98e-07   2.02e-04     
     9   -2803.83878997   4.66e-07   7.20e-05     
 ------------------------------------------------------------------------------
         -2803.83878997                           CCSD T converged.

End of single precision
No iterations in double precision will be done
 SCF energy                 = -2802.64222611
 MP2 energy                 = -2803.81672377
 CCSD correlation energy     =    -1.19656374
 CCSD total energy           = -2803.83878985

 CCSD  T1^2 = 0.0078  T2^2 = 0.4248  Leading amplitudes:

 Amplitude    Orbitals with energies
 -0.0188       6 (B2) A                  ->    11 (B2) A                  
              -0.3214                          0.4838                     
 -0.0188       6 (B2) B                  ->    11 (B2) B                  
              -0.3214                          0.4838                     
  0.0183       2 (A2) B                  ->    4 (A2) B                   
              -0.3497                          0.4533                     
  0.0183       2 (A2) A                  ->    4 (A2) A                   
              -0.3497                          0.4533                     

 Amplitude    Orbitals with energies
 -0.0797       2 (A2) A      2 (A2) B    ->    3 (A2) A      3 (A2) B     
              -0.3497       -0.3497            0.1144        0.1144       
  0.0797       2 (A2) A      2 (A2) B    ->    3 (A2) B      3 (A2) A     
              -0.3497       -0.3497            0.1144        0.1144       
  0.0797       2 (A2) B      2 (A2) A    ->    3 (A2) A      3 (A2) B     
              -0.3497       -0.3497            0.1144        0.1144       
 -0.0797       2 (A2) B      2 (A2) A    ->    3 (A2) B      3 (A2) A     
              -0.3497       -0.3497            0.1144        0.1144       

 Computing CCSD intemediates for later calculations in single precision
 Finished.

 CCSD calculation:   CPU 1837.74 s  wall 270.19 s

 EOMEE-CCSD calculation:   CPU 113.93 s  wall 264.40 s

        Solving for EOMIP-CCSD B2 transitions.

Running a single precision version
      EOMIP-CCSD/MP2 right amplitudes will be solved using Davidson.
      Amplitudes will be solved using standard  algorithm
      Roots     MaxVec    MaxIter   Precond   Conv      Thresh    Shift    
      1         60        60        1         1.00e-06  1.00e-06  0.00e+00  
 ------------------------------------------------------------------------------
      Iter ConvRoots NVecs ResNorm Current eigenvalues (eV)
 ------------------------------------------------------------------------------
      0    0      1     9.90e-02   10.9553   
      1    0      2     4.35e-02   9.3110   
      2    0      3     1.28e-03   8.7816   
      3    0      4     1.33e-04   8.7597   
      4    0      5     2.22e-05   8.7558   
      5    0      6     3.32e-06   8.7552   
      6    1      7     6.02e-07   8.7552*  

     Davidson procedure converged

 EOMIP transition 1/B2
 Total energy = -2803.51704189 a.u.  Excitation energy = 8.7552 eV.
 R1^2 = 0.9418  R2^2 = 0.0582  Res^2 = 6.02e-07
 Conv-d = yes

 Amplitude    Transitions between orbitals
 -0.9691       6 (B2) A                  ->    infty        
  0.0506       5 (B2) A                  ->    infty        
 -0.0030       4 (B2) A                  ->    infty        
  0.0002       3 (B2) A                  ->    infty        

              Summary of significant orbitals:

               Number  Type             Irrep      Energy
               17      Occ  Alpha       3 (B2)     -3.1904
               32      Occ  Alpha       4 (B2)     -0.5415
               35      Occ  Alpha       5 (B2)     -0.4478
               38      Occ  Alpha       6 (B2)     -0.3214


Running a single precision version
      EOMIP-CCSD/MP2 left amplitudes will be solved using Davidson.
      Amplitudes will be solved using MOM  algorithm
      Roots     MaxVec    MaxIter   Precond   Conv      Thresh    Shift    
      1         60        60        1         1.00e-06  1.00e-06  0.00e+00  
 ------------------------------------------------------------------------------
      Iter ConvRoots NVecs ResNorm Current eigenvalues (eV)
 ------------------------------------------------------------------------------
      0    0      1     3.26e-03   8.7552   
      1    0      2     1.49e-03   8.7552   
      2    0      3     6.28e-05   8.7552   
      3    0      4     4.47e-06   8.7552   
      4    1      5     5.58e-07   8.7552*  

     Davidson procedure converged

Running a double precision version
           EOM amplitude response will be solved using DIIS.
           Start     Size      MaxIter   EConv     ZConv     
           3         7         100       1.00e-06  1.00e-06  
 ------------------------------------------------------------------------------
            Enorm      Zdiff       Comment
 ------------------------------------------------------------------------------
     1     9.50e-02   5.26e-02     
     2     3.23e-02   1.98e-02     
     3     1.58e-02   7.12e-03     
     4     5.29e-03   5.43e-03     Switched to DIIS steps.
     5     2.72e-03   1.22e-03     
     6     1.08e-03   5.63e-04     
     7     5.60e-04   1.20e-04     
     8     3.26e-04   4.68e-05     
     9     1.39e-04   2.60e-05     
    10     6.01e-05   8.18e-06     
    11     1.77e-05   1.54e-06     
    12     6.71e-06   7.23e-07     
    13     2.32e-06   3.82e-07     
    14     1.07e-06   2.74e-07     
    15     4.80e-07   1.65e-07     
 ------------------------------------------------------------------------------
                                   Amplitude response converged.

           Orbital response amplitudes will be solved using DIIS.
           Start     Size      MaxIter   EConv     LConv     
           3         7         100       1.00e-06  1.00e-06  
 ------------------------------------------------------------------------------
            Enorm      Ldiff       Comment
 ------------------------------------------------------------------------------
     1     1.13e-01   4.08e-03     
     2     8.78e-02   1.56e-02     
     3     1.16e-01   4.79e-02     
     4     2.39e-02   3.83e-02     Switched to DIIS steps.
     5     1.55e-02   6.28e-03     
     6     1.59e-02   6.25e-03     
     7     1.47e-02   1.64e-02     
     8     9.92e-03   2.56e-03     
     9     2.87e-03   8.26e-02     
    10     1.18e-03   1.60e-02     
    11     7.45e-04   1.94e-03     
    12     2.64e-04   4.33e-04     
    13     1.05e-04   5.31e-05     
    14     4.66e-05   4.11e-05     
    15     3.01e-05   6.39e-06     
    16     1.62e-05   3.28e-05     
    17     1.38e-05   1.63e-05     
    18     1.41e-05   6.78e-06     
    19     1.38e-05   6.47e-06     
    20     1.18e-05   2.95e-05     
    21     7.83e-06   6.69e-05     
    22     3.87e-06   5.03e-05     
    23     1.82e-06   1.85e-05     
    24     1.18e-06   3.85e-06     
    25     5.99e-07   9.38e-07     
 ------------------------------------------------------------------------------
                                   Orbital response converged.

 EOMIP-CCSD calculation:   CPU 4699.67 s  wall 2607.23 s

 Transferring MO TPDM to AO TPDM
 Transferring g2_o1o1o1o1
 Transferring g2_o1o1o1v1
 Transferring g2_o1o1v1v1
 Transferring g2_o1v1o1v1
 Transferring g2_o1v1v1v1
 Transferring g2_v1v1v1v1
 Adding separable TPDM
 Computing TPDM gradient
 --------------------------------------------------------
 2e gradient
  Atom          X               Y               Z
 --------------------------------------------------------
    1          5.664899       -0.000000       -2.263680  
    2          8.945021        0.000000        1.497180  
    3          6.650999       -0.000000        7.914288  
    4          4.641850       -0.000000        2.835729  
    5          0.000000       -0.000000       10.431340  
    6          0.000000       -0.000000        5.326976  
    7         -6.650999       -0.000000        7.914288  
    8         -4.641850        0.000000        2.835729  
    9         -8.945021       -0.000000        1.497180  
   10         -5.664899       -0.000000       -2.263680  
   11         -0.000000        0.000000       13.234971  
   12         -0.000000        0.000000      -48.960321  
 --------------------------------------------------------
 --------------------------------------------------------
 Final gradient
  Atom          X               Y               Z
 --------------------------------------------------------
    1          5.664899       -0.000000       -2.263680  
    2          8.945021        0.000000        1.497180  
    3          6.650999       -0.000000        7.914288  
    4          4.641850       -0.000000        2.835729  
    5          0.000000       -0.000000       10.431340  
    6          0.000000       -0.000000        5.326976  
    7         -6.650999       -0.000000        7.914288  
    8         -4.641850        0.000000        2.835729  
    9         -8.945021       -0.000000        1.497180  
   10         -5.664899       -0.000000       -2.263680  
   11         -0.000000        0.000000       13.234971  
   12         -0.000000        0.000000      -48.960321  
 --------------------------------------------------------
 Analytic gradient from two-electron contribution:   CPU 168493.74 s  wall 22689.17 s

 Total ccman2 time:   CPU 177762.54 s  wall 26208.24 s


 --------------------------------------------------------------
             Orbital Energies (a.u.) and Symmetries
 --------------------------------------------------------------

 Alpha MOs, Unrestricted
 -- Occupied --                  
-490.02  -65.16  -58.52  -11.29  -11.25  -11.24  -11.24   -9.84
  1 A1    2 A1    3 A1    4 A1    5 A1    6 A1    7 A1    8 A1                 
 -7.451 -58.516 -11.246 -11.245  -7.443 -58.516  -7.444  -3.194
  9 A1    1 B1    2 B1    3 B1    4 B1    1 B2    2 B2   10 A1                 
 -3.182  -1.185  -1.097  -0.971  -0.812  -0.708  -0.645  -0.582
 11 A1   12 A1   13 A1   14 A1   15 A1   16 A1   17 A1   18 A1                 
 -0.503  -3.182  -0.350  -3.190  -1.029  -0.846  -0.646  -0.601
 19 A1    1 A2    2 A2    5 B1    6 B1    7 B1    8 B1    9 B1                 
 -0.513  -0.415  -3.190  -0.541  -0.448  -0.321
 10 B1   11 B1    3 B2    4 B2    5 B2    6 B2                                 
 -- Virtual --                   
  0.140   0.174   0.191   0.205   0.312   0.386   0.394   0.421
 20 A1   21 A1   22 A1   23 A1   24 A1   25 A1   26 A1   27 A1                 
  0.475   0.500   0.547   0.556   0.587   0.616   0.645   0.684
 28 A1   29 A1   30 A1   31 A1   32 A1   33 A1   34 A1   35 A1                 
  0.727   0.765   0.800   0.921   0.962   0.998   1.057   1.103
 36 A1   37 A1   38 A1   39 A1   40 A1   41 A1   42 A1   43 A1                 
  1.111   1.227   1.288   1.329   1.376   1.477   1.547   1.602
 44 A1   45 A1   46 A1   47 A1   48 A1   49 A1   50 A1   51 A1                 
  1.634   1.674   1.731   1.881   1.914   2.054   2.107   2.187
 52 A1   53 A1   54 A1   55 A1   56 A1   57 A1   58 A1   59 A1                 
  2.206   2.305   2.330   2.461   2.595   2.676   2.742   2.766
 60 A1   61 A1   62 A1   63 A1   64 A1   65 A1   66 A1   67 A1                 
  2.843   2.998   3.042   3.112   3.154   3.278   3.325   3.391
 68 A1   69 A1   70 A1   71 A1   72 A1   73 A1   74 A1   75 A1                 
  3.393   3.415   3.440   3.458   3.629   3.649   3.759   3.895
 76 A1   77 A1   78 A1   79 A1   80 A1   81 A1   82 A1   83 A1                 
  3.925   3.991   4.104   4.145   4.204   4.312   4.434   4.510
 84 A1   85 A1   86 A1   87 A1   88 A1   89 A1   90 A1   91 A1                 
  4.515   4.589   4.670   4.694   4.796   4.982   5.034   5.139
 92 A1   93 A1   94 A1   95 A1   96 A1   97 A1   98 A1   99 A1                 
  5.283   5.349   5.442   5.491   5.921   6.033   6.079   6.462
100 A1  101 A1  102 A1  103 A1  104 A1  105 A1  106 A1  107 A1                 
  6.757   9.033  12.559  13.467  16.116   0.114   0.453   0.516
108 A1  109 A1  110 A1  111 A1  112 A1    3 A2    4 A2    5 A2                 
  0.598   0.844   0.849   0.955   1.197   1.280   1.477   1.578
  6 A2    7 A2    8 A2    9 A2   10 A2   11 A2   12 A2   13 A2                 
  1.725   1.967   2.070   2.443   2.549   2.655   2.950   3.047
 14 A2   15 A2   16 A2   17 A2   18 A2   19 A2   20 A2   21 A2                 
  3.078   3.225   3.370   3.429   3.459   3.639   3.679   3.788
 22 A2   23 A2   24 A2   25 A2   26 A2   27 A2   28 A2   29 A2                 
  3.980   4.072   4.144   4.196   4.407   4.612   4.653   5.107
 30 A2   31 A2   32 A2   33 A2   34 A2   35 A2   36 A2   37 A2                 
  5.135   5.369   0.166   0.208   0.316   0.375   0.412   0.468
 38 A2   39 A2   12 B1   13 B1   14 B1   15 B1   16 B1   17 B1                 
  0.512   0.579   0.591   0.640   0.675   0.724   0.806   0.869
 18 B1   19 B1   20 B1   21 B1   22 B1   23 B1   24 B1   25 B1                 
  0.919   0.991   1.020   1.093   1.249   1.375   1.378   1.483
 26 B1   27 B1   28 B1   29 B1   30 B1   31 B1   32 B1   33 B1                 
  1.498   1.512   1.570   1.616   1.719   1.755   1.917   2.108
 34 B1   35 B1   36 B1   37 B1   38 B1   39 B1   40 B1   41 B1                 
  2.142   2.203   2.336   2.415   2.573   2.657   2.743   2.775
 42 B1   43 B1   44 B1   45 B1   46 B1   47 B1   48 B1   49 B1                 
  2.911   3.007   3.065   3.168   3.315   3.347   3.375   3.437
 50 B1   51 B1   52 B1   53 B1   54 B1   55 B1   56 B1   57 B1                 
  3.465   3.531   3.667   3.686   3.729   3.966   4.118   4.125
 58 B1   59 B1   60 B1   61 B1   62 B1   63 B1   64 B1   65 B1                 
  4.168   4.244   4.368   4.452   4.499   4.536   4.672   4.701
 66 B1   67 B1   68 B1   69 B1   70 B1   71 B1   72 B1   73 B1                 
  4.884   5.079   5.100   5.312   5.381   5.522   5.589   5.908
 74 B1   75 B1   76 B1   77 B1   78 B1   79 B1   80 B1   81 B1                 
  6.280   6.302   6.423   7.180  13.210  13.805   0.113   0.300
 82 B1   83 B1   84 B1   85 B1   86 B1   87 B1    7 B2    8 B2                 
  0.397   0.435   0.484   0.566   0.580   0.670   0.762   0.917
  9 B2   10 B2   11 B2   12 B2   13 B2   14 B2   15 B2   16 B2                 
  1.056   1.171   1.205   1.259   1.442   1.526   1.714   1.780
 17 B2   18 B2   19 B2   20 B2   21 B2   22 B2   23 B2   24 B2                 
  1.977   2.103   2.259   2.343   2.480   2.556   2.829   2.843
 25 B2   26 B2   27 B2   28 B2   29 B2   30 B2   31 B2   32 B2                 
  2.948   2.998   3.018   3.192   3.218   3.262   3.480   3.498
 33 B2   34 B2   35 B2   36 B2   37 B2   38 B2   39 B2   40 B2                 
  3.631   3.650   3.727   3.975   4.094   4.140   4.181   4.373
 41 B2   42 B2   43 B2   44 B2   45 B2   46 B2   47 B2   48 B2                 
  4.493   4.659   4.695   5.028   5.056   5.241   5.726
 49 B2   50 B2   51 B2   52 B2   53 B2   54 B2   55 B2                         

 Beta MOs, Unrestricted
 -- Occupied --                  
-490.02  -65.16  -58.52  -11.29  -11.25  -11.24  -11.24   -9.84
  1 A1    2 A1    3 A1    4 A1    5 A1    6 A1    7 A1    8 A1                 
 -7.451 -58.516 -11.246 -11.245  -7.443 -58.516  -7.444  -3.194
  9 A1    1 B1    2 B1    3 B1    4 B1    1 B2    2 B2   10 A1                 
 -3.182  -1.185  -1.097  -0.971  -0.812  -0.708  -0.645  -0.582
 11 A1   12 A1   13 A1   14 A1   15 A1   16 A1   17 A1   18 A1                 
 -0.503  -3.182  -0.350  -3.190  -1.029  -0.846  -0.646  -0.601
 19 A1    1 A2    2 A2    5 B1    6 B1    7 B1    8 B1    9 B1                 
 -0.513  -0.415  -3.190  -0.541  -0.448  -0.321
 10 B1   11 B1    3 B2    4 B2    5 B2    6 B2                                 
 -- Virtual --                   
  0.140   0.174   0.191   0.205   0.312   0.386   0.394   0.421
 20 A1   21 A1   22 A1   23 A1   24 A1   25 A1   26 A1   27 A1                 
  0.475   0.500   0.547   0.556   0.587   0.616   0.645   0.684
 28 A1   29 A1   30 A1   31 A1   32 A1   33 A1   34 A1   35 A1                 
  0.727   0.765   0.800   0.921   0.962   0.998   1.057   1.103
 36 A1   37 A1   38 A1   39 A1   40 A1   41 A1   42 A1   43 A1                 
  1.111   1.227   1.288   1.329   1.376   1.477   1.547   1.602
 44 A1   45 A1   46 A1   47 A1   48 A1   49 A1   50 A1   51 A1                 
  1.634   1.674   1.731   1.881   1.914   2.054   2.107   2.187
 52 A1   53 A1   54 A1   55 A1   56 A1   57 A1   58 A1   59 A1                 
  2.206   2.305   2.330   2.461   2.595   2.676   2.742   2.766
 60 A1   61 A1   62 A1   63 A1   64 A1   65 A1   66 A1   67 A1                 
  2.843   2.998   3.042   3.112   3.154   3.278   3.325   3.391
 68 A1   69 A1   70 A1   71 A1   72 A1   73 A1   74 A1   75 A1                 
  3.393   3.415   3.440   3.458   3.629   3.649   3.759   3.895
 76 A1   77 A1   78 A1   79 A1   80 A1   81 A1   82 A1   83 A1                 
  3.925   3.991   4.104   4.145   4.204   4.312   4.434   4.510
 84 A1   85 A1   86 A1   87 A1   88 A1   89 A1   90 A1   91 A1                 
  4.515   4.589   4.670   4.694   4.796   4.982   5.034   5.139
 92 A1   93 A1   94 A1   95 A1   96 A1   97 A1   98 A1   99 A1                 
  5.283   5.349   5.442   5.491   5.921   6.033   6.079   6.462
100 A1  101 A1  102 A1  103 A1  104 A1  105 A1  106 A1  107 A1                 
  6.757   9.033  12.559  13.467  16.116   0.114   0.453   0.516
108 A1  109 A1  110 A1  111 A1  112 A1    3 A2    4 A2    5 A2                 
  0.598   0.844   0.849   0.955   1.197   1.280   1.477   1.578
  6 A2    7 A2    8 A2    9 A2   10 A2   11 A2   12 A2   13 A2                 
  1.725   1.967   2.070   2.443   2.549   2.655   2.950   3.047
 14 A2   15 A2   16 A2   17 A2   18 A2   19 A2   20 A2   21 A2                 
  3.078   3.225   3.370   3.429   3.459   3.639   3.679   3.788
 22 A2   23 A2   24 A2   25 A2   26 A2   27 A2   28 A2   29 A2                 
  3.980   4.072   4.144   4.196   4.407   4.612   4.653   5.107
 30 A2   31 A2   32 A2   33 A2   34 A2   35 A2   36 A2   37 A2                 
  5.135   5.369   0.166   0.208   0.316   0.375   0.412   0.468
 38 A2   39 A2   12 B1   13 B1   14 B1   15 B1   16 B1   17 B1                 
  0.512   0.579   0.591   0.640   0.675   0.724   0.806   0.869
 18 B1   19 B1   20 B1   21 B1   22 B1   23 B1   24 B1   25 B1                 
  0.919   0.991   1.020   1.093   1.249   1.375   1.378   1.483
 26 B1   27 B1   28 B1   29 B1   30 B1   31 B1   32 B1   33 B1                 
  1.498   1.512   1.570   1.616   1.719   1.755   1.917   2.108
 34 B1   35 B1   36 B1   37 B1   38 B1   39 B1   40 B1   41 B1                 
  2.142   2.203   2.336   2.415   2.573   2.657   2.743   2.775
 42 B1   43 B1   44 B1   45 B1   46 B1   47 B1   48 B1   49 B1                 
  2.911   3.007   3.065   3.168   3.315   3.347   3.375   3.437
 50 B1   51 B1   52 B1   53 B1   54 B1   55 B1   56 B1   57 B1                 
  3.465   3.531   3.667   3.686   3.729   3.966   4.118   4.125
 58 B1   59 B1   60 B1   61 B1   62 B1   63 B1   64 B1   65 B1                 
  4.168   4.244   4.368   4.452   4.499   4.536   4.672   4.701
 66 B1   67 B1   68 B1   69 B1   70 B1   71 B1   72 B1   73 B1                 
  4.884   5.079   5.100   5.312   5.381   5.522   5.589   5.908
 74 B1   75 B1   76 B1   77 B1   78 B1   79 B1   80 B1   81 B1                 
  6.280   6.302   6.423   7.180  13.210  13.805   0.113   0.300
 82 B1   83 B1   84 B1   85 B1   86 B1   87 B1    7 B2    8 B2                 
  0.397   0.435   0.484   0.566   0.580   0.670   0.762   0.917
  9 B2   10 B2   11 B2   12 B2   13 B2   14 B2   15 B2   16 B2                 
  1.056   1.171   1.205   1.259   1.442   1.526   1.714   1.780
 17 B2   18 B2   19 B2   20 B2   21 B2   22 B2   23 B2   24 B2                 
  1.977   2.103   2.259   2.343   2.480   2.556   2.829   2.843
 25 B2   26 B2   27 B2   28 B2   29 B2   30 B2   31 B2   32 B2                 
  2.948   2.998   3.018   3.192   3.218   3.262   3.480   3.498
 33 B2   34 B2   35 B2   36 B2   37 B2   38 B2   39 B2   40 B2                 
  3.631   3.650   3.727   3.975   4.094   4.140   4.181   4.373
 41 B2   42 B2   43 B2   44 B2   45 B2   46 B2   47 B2   48 B2                 
  4.493   4.659   4.695   5.028   5.056   5.241   5.726
 49 B2   50 B2   51 B2   52 B2   53 B2   54 B2   55 B2                         
 --------------------------------------------------------------

          Ground-State Mulliken Net Atomic Charges

     Atom                 Charge (a.u.)    Spin (a.u.)
  --------------------------------------------------------
      1 H                     0.213702      -0.001331
      2 C                    -0.105735      -0.013567
      3 C                    -0.092653      -0.044264
      4 H                     0.210417       0.004617
      5 C                    -0.037239      -0.271989
      6 H                     0.222310       0.010020
      7 C                    -0.092653      -0.044264
      8 H                     0.210417       0.004617
      9 C                    -0.105735      -0.013567
     10 H                     0.213702      -0.001331
     11 C                     0.031769      -0.306310
     12 Br                    0.331699      -0.322629
  --------------------------------------------------------
  Sum of atomic charges =     1.000000
  Sum of spin   charges =    -1.000000

 -----------------------------------------------------------------
                    Cartesian Multipole Moments
 -----------------------------------------------------------------
    Charge (ESU x 10^10)
                 4.8032
    Dipole Moment (Debye)
         X       0.0000      Y      -0.0000      Z      -3.8477
       Tot       3.8477
    Quadrupole Moments (Debye-Ang)
        XX     -39.7036     XY      -0.0000     YY     -52.0902
        XZ       0.0000     YZ       0.0000     ZZ     -24.2681
    Octopole Moments (Debye-Ang^2)
       XXX       0.0000    XXY      -0.0000    XYY      -0.0000
       YYY      -0.0000    XXZ       2.8615    XYZ      -0.0000
       YYZ      22.8589    XZZ       0.0000    YZZ       0.0000
       ZZZ       5.1776
    Hexadecapole Moments (Debye-Ang^3)
      XXXX    -237.7834   XXXY      -0.0000   XXYY     -63.2088
      XYYY       0.0000   YYYY     -55.8839   XXXZ      -0.0000
      XXYZ       0.0000   XYYZ       0.0000   YYYZ       0.0000
      XXZZ    -174.5689   XYZZ      -0.0000   YYZZ    -178.5051
      XZZZ       0.0000   YZZZ       0.0000   ZZZZ    -702.3990
 -----------------------------------------------------------------
 DrvMan completing analytic gradient of the correlated energy
 Correlated dipole moment
            1
    1   0.0000000
    2  -0.0000000
    3  -1.5137827
 Energy read as -2803.517041887
 Full Analytical Gradient: (in a.u., or Hartree/Bohr)
             1             2             3             4             5
    1    0.00007163    0.02581711    0.02114287   -0.00096013    0.00000000
    2    0.00000000    0.00000000   -0.00000000   -0.00000000   -0.00000000
    3    0.00110886    0.03286602   -0.02085106   -0.00063252    0.00708763
             6             7             8             9            10
    1    0.00000000   -0.02114287    0.00096013   -0.02581711   -0.00007163
    2    0.00000000    0.00000000   -0.00000000   -0.00000000    0.00000000
    3   -0.00011514   -0.02085106   -0.00063252    0.03286602    0.00110886
            11            12
    1    0.00000000    0.00000000
    2    0.00000000   -0.00000000
    3    0.02741434   -0.05936942
 Gradient time:  CPU 1.82 s  wall 3.32 s
 Geometry Optimization Parameters
   NAtoms,    NIC,     NZ,  NCons,   NDum,   NFix, NCnnct, MaxDiis
       12      78       0       0       0       0       0       0


** GEOMETRY OPTIMIZATION IN DELOCALIZED INTERNAL COORDINATES **
   Searching for a Minimum

   Optimization Cycle:   1

                       Coordinates (Angstroms)
     ATOM                X               Y               Z
      1  H        -2.1400320233    0.0000000000   -0.1495480158
      2  C        -1.2120583232    0.0000000000   -0.7028148658
      3  C        -1.2042956497    0.0000000000   -2.0947016297
      4  H        -2.1437187877    0.0000000000   -2.6302428250
      5  C         0.0000000000    0.0000000000   -2.7936988293
      6  H         0.0000000000    0.0000000000   -3.8745528350
      7  C         1.2042956497    0.0000000000   -2.0947016297
      8  H         2.1437187877    0.0000000000   -2.6302428250
      9  C         1.2120583232    0.0000000000   -0.7028148658
     10  H         2.1400320233    0.0000000000   -0.1495480158
     11  C         0.0000000000    0.0000000000   -0.0199042774
     12  Br        0.0000000000    0.0000000000    1.7110271744
   Point Group: c2v   Number of degrees of freedom:    11


   Energy is  -2803.517041887


 Attempting to Generate Delocalized Internal Coordinates

 11 Hessian modes will be used to form the next step
  Hessian Eigenvalues:
     0.160000    0.160000    0.220000    0.234961    0.324108    0.358316
     0.358913    0.359474    0.427026    0.469882    0.470035

 Minimum Search - Taking Simple RFO Step
 Searching for Lamda that Minimizes Along All modes
 Value Taken    Lamda =  -0.01765046
 Step Taken.  Stepsize is  0.215175

                             Maximum     Tolerance    Cnvgd?
         Gradient           0.053190      0.000300      NO
         Displacement       0.134926      0.001200      NO
         Energy change     *********      0.000001      NO


 New Cartesian Coordinates Obtained by Inverse Iteration

 Displacement from previous Coordinates is:  0.247074
 ----------------------------------------------------------------
             Standard Nuclear Orientation (Angstroms)
    I     Atom           X                Y                Z
 ----------------------------------------------------------------
    1      H      -2.1728608608     0.0000000000    -0.1767078593
    2      C      -1.2414033601     0.0000000000    -0.7226855675
    3      C      -1.2312070778     0.0000000000    -2.0950081228
    4      H      -2.1648440919     0.0000000000    -2.6373660355
    5      C       0.0000000000     0.0000000000    -2.7847005182
    6      H       0.0000000000     0.0000000000    -3.8653927156
    7      C       1.2312070778     0.0000000000    -2.0950081228
    8      H       2.1648440919     0.0000000000    -2.6373660355
    9      C       1.2414033601     0.0000000000    -0.7226855675
   10      H       2.1728608608     0.0000000000    -0.1767078593
   11      C       0.0000000000     0.0000000000    -0.0204869045
   12      Br      0.0000000000     0.0000000000     1.8023718684
 ----------------------------------------------------------------
 Molecular Point Group                 C2v   NOp =  4
 Largest Abelian Subgroup              C2v   NOp =  4
 Nuclear Repulsion Energy =   435.1844292425 hartrees
 There are       38 alpha and       38 beta electrons
 Applying Cartesian multipole field
    Component          Value
    ---------          -----
     (2,0,0)        1.00000E-11
     (0,2,0)        2.00000E-10
     (0,0,2)       -3.00000E-11
 Nucleus-field energy     =    -0.0000000246 hartrees
 Requested basis set is cc-pVTZ
 There are 105 shells and 293 basis functions
 A cutoff of  1.0D-14 yielded   5231 shell pairs
 There are     41279 function pairs (     53906 Cartesian)
 Smallest overlap matrix eigenvalue = 3.66E-05
 Guess MOs from SCF MO coefficient file

 -----------------------------------------------------------------------
  General SCF calculation program by
  Eric Jon Sundstrom, Paul Horn, Yuezhi Mao, Dmitri Zuev, Alec White,
  David Stuck, Shaama M.S., Shane Yost, Joonho Lee, David Small,
  Daniel Levine, Susi Lehtola, Hugh Burton, Evgeny Epifanovsky
 -----------------------------------------------------------------------
 Hartree-Fock
 using 8 threads for integral computing
 -------------------------------------------------------
 OpenMP Integral computing Module                
 Release: version 2.0, May 2017, Q-Chem Inc. Pleasanton 
 -------------------------------------------------------
 A unrestricted SCF calculation will be
 performed using DIIS
 SCF converges when DIIS error is below 1.0e-08
 ---------------------------------------
  Cycle       Energy         DIIS error
 ---------------------------------------
    1   -2802.6460370973      2.60e-04  
    2   -2802.6488123646      1.03e-04  
    3   -2802.6492106260      4.57e-05  
    4   -2802.6493161566      8.90e-06  
    5   -2802.6493220317      3.82e-06  
    6   -2802.6493237362      1.60e-06  
    7   -2802.6493244521      7.07e-07  
    8   -2802.6493245956      1.65e-07  
    9   -2802.6493246006      6.86e-08  
   10   -2802.6493246012      1.52e-08  
   11   -2802.6493246012      4.54e-09  Convergence criterion met
 ---------------------------------------
 SCF time:   CPU 1426.27s  wall 180.00s 
<S^2> =         -0.000000000
 SCF   energy in the final basis set =    -2802.6493246012
 Total energy in the final basis set =    -2802.6493246012


 ------------------------------------------------------------------------------

   CCMAN2: suite of methods based on coupled cluster
           and equation of motion theories.

   Components:
   * libvmm-1.3-trunk
     by Evgeny Epifanovsky, Ilya Kaliman.
   * libtensor-2.5-trunk
     by Evgeny Epifanovsky, Michael Wormit, Dmitry Zuev, Sam Manzer, 
        Ilya Kaliman.
   * libcc-2.5-trunk
     by Evgeny Epifanovsky, Arik Landau, Tomasz Kus, Kirill Khistyaev, 
        Dmitry Zuev, Prashant Manohar, Xintian Feng, Anna Krylov, 
        Matthew Goldey, Alec White, Thomas Jagau, Kaushik Nanda, 
        Anastasia Gunina, Alexander Kunitsa, Joonho Lee.

   CCMAN original authors:
   Anna I. Krylov, C. David Sherrill, Steven R. Gwaltney,
   Edward F. C. Byrd (2000)
   Sergey V. Levchenko, Lyudmila V. Slipchenko, Tao Wang,
   Ana-Maria C. Cristian (2003)
   Piotr A. Pieniazek, C. Melania Oana, Evgeny Epifanovsky (2007)
   Prashant Manohar (2009)

 ------------------------------------------------------------------------------


 Allocating and initializing 80000MB of RAM...
 Calculation will run on 8 cores.


 Alpha MOs, Unrestricted
 -- Occupied --                  
-490.02  -65.16  -58.52  -58.52  -58.52  -11.30  -11.25  -11.25
  1 A1    2 A1    3 A1    1 B2    1 B1    4 A1    2 B1    5 A1                 
-11.249 -11.248 -11.247  -9.838  -7.450  -7.443  -7.443  -3.193
  6 A1    3 B1    7 A1    8 A1    9 A1    2 B2    4 B1   10 A1                 
 -3.190  -3.189  -3.181  -3.181  -1.170  -1.078  -1.037  -0.966
  3 B2    5 B1    1 A2   11 A1   12 A1   13 A1    6 B1   14 A1                 
 -0.837  -0.818  -0.707  -0.646  -0.640  -0.610  -0.569  -0.530
  7 B1   15 A1   16 A1   17 A1    8 B1    9 B1   18 A1    4 B2                 
 -0.511  -0.501  -0.442  -0.415  -0.357  -0.320
 10 B1   19 A1    5 B2   11 B1    2 A2    6 B2                                 
 -- Virtual --                   
  0.104   0.117   0.137   0.164   0.171   0.181   0.205   0.207
  7 B2    3 A2   20 A1   12 B1   21 A1   22 A1   23 A1   13 B1                 
  0.300   0.310   0.321   0.374   0.382   0.391   0.393   0.407
  8 B2   24 A1   14 B1   15 B1   25 A1   26 A1    9 B2   16 B1                 
  0.413   0.435   0.454   0.457   0.476   0.482   0.499   0.505
 27 A1   10 B2    4 A2   17 B1   28 A1   11 B2   29 A1   18 B1                 
  0.518   0.539   0.546   0.568   0.573   0.580   0.582   0.589
  5 A2   30 A1   31 A1   12 B2   13 B2   32 A1   19 B1   20 B1                 
  0.597   0.613   0.636   0.640   0.664   0.666   0.676   0.718
  6 A2   33 A1   34 A1   21 B1   14 B2   22 B1   35 A1   36 A1                 
  0.727   0.756   0.761   0.792   0.801   0.830   0.848   0.865
 23 B1   15 B2   37 A1   24 B1   38 A1    7 A2    8 A2   25 B1                 
  0.916   0.916   0.918   0.944   0.944   0.972   0.985   1.018
 16 B2   26 B1   39 A1    9 A2   40 A1   27 B1   41 A1   28 B1                 
  1.046   1.047   1.083   1.088   1.118   1.163   1.199   1.199
 17 B2   42 A1   43 A1   29 B1   44 A1   18 B2   19 B2   10 A2                 
  1.219   1.250   1.251   1.273   1.285   1.320   1.367   1.377
 45 A1   20 B2   30 B1   11 A2   46 A1   47 A1   31 B1   48 A1                 
  1.380   1.431   1.471   1.474   1.474   1.488   1.504   1.522
 32 B1   21 B2   12 A2   49 A1   33 B1   34 B1   35 B1   22 B2                 
  1.541   1.567   1.568   1.596   1.625   1.626   1.670   1.704
 50 A1   36 B1   13 A2   51 A1   52 A1   37 B1   53 A1   38 B1                 
  1.706   1.714   1.730   1.759   1.778   1.857   1.883   1.886
 23 B2   14 A2   54 A1   39 B1   24 B2   55 A1   40 B1   56 A1                 
  1.947   1.964   2.019   2.065   2.086   2.097   2.107   2.148
 15 A2   25 B2   57 A1   16 A2   26 B2   58 A1   41 B1   42 B1                 
  2.178   2.196   2.201   2.247   2.286   2.300   2.333   2.334
 59 A1   60 A1   43 B1   27 B2   61 A1   44 B1   28 B2   62 A1                 
  2.381   2.436   2.453   2.474   2.537   2.541   2.545   2.593
 45 B1   17 A2   63 A1   29 B2   30 B2   46 B1   18 A2   64 A1                 
  2.610   2.630   2.669   2.718   2.738   2.766   2.774   2.816
 47 B1   19 A2   65 A1   66 A1   48 B1   49 B1   67 A1   31 B2                 
  2.823   2.835   2.888   2.938   2.954   2.977   2.989   3.001
 32 B2   68 A1   50 B1   33 B2   20 A2   51 B1   34 B2   69 A1                 
  3.006   3.037   3.038   3.058   3.061   3.106   3.143   3.161
 35 B2   21 A2   70 A1   22 A2   52 B1   71 A1   72 A1   36 B2                 
  3.163   3.211   3.224   3.256   3.267   3.296   3.317   3.330
 53 B1   37 B2   23 A2   73 A1   38 B2   54 B1   74 A1   55 B1                 
  3.354   3.357   3.381   3.381   3.402   3.405   3.423   3.430
 75 A1   24 A2   56 B1   76 A1   57 B1   77 A1   78 A1   25 A2                 
  3.430   3.447   3.457   3.460   3.483   3.524   3.595   3.612
 58 B1   79 A1   26 A2   39 B2   40 B2   59 B1   80 A1   41 B2                 
  3.631   3.632   3.654   3.655   3.679   3.680   3.716   3.718
 81 A1   27 A2   42 B2   60 B1   28 A2   61 B1   62 B1   43 B2                 
  3.732   3.771   3.863   3.911   3.940   3.954   3.962   3.971
 82 A1   29 A2   83 A1   84 A1   44 B2   63 B1   85 A1   30 A2                 
  4.056   4.078   4.084   4.093   4.110   4.112   4.132   4.135
 31 A2   86 A1   45 B2   64 B1   65 B1   87 A1   32 A2   46 B2                 
  4.142   4.167   4.178   4.190   4.221   4.282   4.337   4.354
 66 B1   47 B2   88 A1   33 A2   67 B1   89 A1   48 B2   68 B1                 
  4.407   4.435   4.439   4.471   4.476   4.485   4.502   4.520
 34 A2   90 A1   69 B1   91 A1   49 B2   70 B1   92 A1   71 B1                 
  4.556   4.571   4.608   4.636   4.648   4.664   4.681   4.704
 93 A1   35 A2   50 B2   94 A1   36 A2   72 B1   95 A1   73 B1                 
  4.704   4.759   4.851   4.888   4.988   5.019   5.035   5.043
 51 B2   96 A1   74 B1   97 A1   98 A1   52 B2   53 B2   75 B1                 
  5.047   5.074   5.085   5.111   5.197   5.236   5.304   5.343
 99 A1   76 B1   37 A2   38 A2  100 A1   54 B2   77 B1  101 A1                 
  5.347   5.369   5.426   5.490   5.496   5.559   5.706   5.879
 78 B1   39 A2  102 A1  103 A1   79 B1   80 B1   55 B2  104 A1                 
  5.903   5.963   6.073   6.259   6.292   6.360   6.414   6.739
 81 B1  105 A1  106 A1   82 B1   83 B1   84 B1  107 A1  108 A1                 
  7.118   8.973  12.187  12.802  13.218  13.804  15.894
 85 B1  109 A1  110 A1   86 B1  111 A1   87 B1  112 A1                         

 Beta MOs, Unrestricted
 -- Occupied --                  
-490.02  -65.16  -58.52  -58.52  -58.52  -11.30  -11.25  -11.25
  1 A1    2 A1    3 A1    1 B2    1 B1    4 A1    2 B1    5 A1                 
-11.249 -11.248 -11.247  -9.838  -7.450  -7.443  -7.443  -3.193
  6 A1    3 B1    7 A1    8 A1    9 A1    2 B2    4 B1   10 A1                 
 -3.190  -3.189  -3.181  -3.181  -1.170  -1.078  -1.037  -0.966
  3 B2    5 B1    1 A2   11 A1   12 A1   13 A1    6 B1   14 A1                 
 -0.837  -0.818  -0.707  -0.646  -0.640  -0.610  -0.569  -0.530
  7 B1   15 A1   16 A1   17 A1    8 B1    9 B1   18 A1    4 B2                 
 -0.511  -0.501  -0.442  -0.415  -0.357  -0.320
 10 B1   19 A1    5 B2   11 B1    2 A2    6 B2                                 
 -- Virtual --                   
  0.104   0.117   0.137   0.164   0.171   0.181   0.205   0.207
  7 B2    3 A2   20 A1   12 B1   21 A1   22 A1   23 A1   13 B1                 
  0.300   0.310   0.321   0.374   0.382   0.391   0.393   0.407
  8 B2   24 A1   14 B1   15 B1   25 A1   26 A1    9 B2   16 B1                 
  0.413   0.435   0.454   0.457   0.476   0.482   0.499   0.505
 27 A1   10 B2    4 A2   17 B1   28 A1   11 B2   29 A1   18 B1                 
  0.518   0.539   0.546   0.568   0.573   0.580   0.582   0.589
  5 A2   30 A1   31 A1   12 B2   13 B2   32 A1   19 B1   20 B1                 
  0.597   0.613   0.636   0.640   0.664   0.666   0.676   0.718
  6 A2   33 A1   34 A1   21 B1   14 B2   22 B1   35 A1   36 A1                 
  0.727   0.756   0.761   0.792   0.801   0.830   0.848   0.865
 23 B1   15 B2   37 A1   24 B1   38 A1    7 A2    8 A2   25 B1                 
  0.916   0.916   0.918   0.944   0.944   0.972   0.985   1.018
 16 B2   26 B1   39 A1    9 A2   40 A1   27 B1   41 A1   28 B1                 
  1.046   1.047   1.083   1.088   1.118   1.163   1.199   1.199
 17 B2   42 A1   43 A1   29 B1   44 A1   18 B2   19 B2   10 A2                 
  1.219   1.250   1.251   1.273   1.285   1.320   1.367   1.377
 45 A1   20 B2   30 B1   11 A2   46 A1   47 A1   31 B1   48 A1                 
  1.380   1.431   1.471   1.474   1.474   1.488   1.504   1.522
 32 B1   21 B2   12 A2   49 A1   33 B1   34 B1   35 B1   22 B2                 
  1.541   1.567   1.568   1.596   1.625   1.626   1.670   1.704
 50 A1   36 B1   13 A2   51 A1   52 A1   37 B1   53 A1   38 B1                 
  1.706   1.714   1.730   1.759   1.778   1.857   1.883   1.886
 23 B2   14 A2   54 A1   39 B1   24 B2   55 A1   40 B1   56 A1                 
  1.947   1.964   2.019   2.065   2.086   2.097   2.107   2.148
 15 A2   25 B2   57 A1   16 A2   26 B2   58 A1   41 B1   42 B1                 
  2.178   2.196   2.201   2.247   2.286   2.300   2.333   2.334
 59 A1   60 A1   43 B1   27 B2   61 A1   44 B1   28 B2   62 A1                 
  2.381   2.436   2.453   2.474   2.537   2.541   2.545   2.593
 45 B1   17 A2   63 A1   29 B2   30 B2   46 B1   18 A2   64 A1                 
  2.610   2.630   2.669   2.718   2.738   2.766   2.774   2.816
 47 B1   19 A2   65 A1   66 A1   48 B1   49 B1   67 A1   31 B2                 
  2.823   2.835   2.888   2.938   2.954   2.977   2.989   3.001
 32 B2   68 A1   50 B1   33 B2   20 A2   51 B1   34 B2   69 A1                 
  3.006   3.037   3.038   3.058   3.061   3.106   3.143   3.161
 35 B2   21 A2   70 A1   22 A2   52 B1   71 A1   72 A1   36 B2                 
  3.163   3.211   3.224   3.256   3.267   3.296   3.317   3.330
 53 B1   37 B2   23 A2   73 A1   38 B2   54 B1   74 A1   55 B1                 
  3.354   3.357   3.381   3.381   3.402   3.405   3.423   3.430
 75 A1   24 A2   56 B1   76 A1   57 B1   77 A1   78 A1   25 A2                 
  3.430   3.447   3.457   3.460   3.483   3.524   3.595   3.612
 58 B1   79 A1   26 A2   39 B2   40 B2   59 B1   80 A1   41 B2                 
  3.631   3.632   3.654   3.655   3.679   3.680   3.716   3.718
 81 A1   27 A2   42 B2   60 B1   28 A2   61 B1   62 B1   43 B2                 
  3.732   3.771   3.863   3.911   3.940   3.954   3.962   3.971
 82 A1   29 A2   83 A1   84 A1   44 B2   63 B1   85 A1   30 A2                 
  4.056   4.078   4.084   4.093   4.110   4.112   4.132   4.135
 31 A2   86 A1   45 B2   64 B1   65 B1   87 A1   32 A2   46 B2                 
  4.142   4.167   4.178   4.190   4.221   4.282   4.337   4.354
 66 B1   47 B2   88 A1   33 A2   67 B1   89 A1   48 B2   68 B1                 
  4.407   4.435   4.439   4.471   4.476   4.485   4.502   4.520
 34 A2   90 A1   69 B1   91 A1   49 B2   70 B1   92 A1   71 B1                 
  4.556   4.571   4.608   4.636   4.648   4.664   4.681   4.704
 93 A1   35 A2   50 B2   94 A1   36 A2   72 B1   95 A1   73 B1                 
  4.704   4.759   4.851   4.888   4.988   5.019   5.035   5.043
 51 B2   96 A1   74 B1   97 A1   98 A1   52 B2   53 B2   75 B1                 
  5.047   5.074   5.085   5.111   5.197   5.236   5.304   5.343
 99 A1   76 B1   37 A2   38 A2  100 A1   54 B2   77 B1  101 A1                 
  5.347   5.369   5.426   5.490   5.496   5.559   5.706   5.879
 78 B1   39 A2  102 A1  103 A1   79 B1   80 B1   55 B2  104 A1                 
  5.903   5.963   6.073   6.259   6.292   6.360   6.414   6.739
 81 B1  105 A1  106 A1   82 B1   83 B1   84 B1  107 A1  108 A1                 
  7.118   8.973  12.187  12.802  13.218  13.804  15.894
 85 B1  109 A1  110 A1   86 B1  111 A1   87 B1  112 A1                         

 Occupation and symmetry of molecular orbitals

 Point group: C2v (4 irreducible representations).

                           A1   A2   B1   B2    All 
 ----------------------------------------------------
 All molecular orbitals:
  - Alpha                  112  39   87   55    293 
  - Beta                   112  39   87   55    293 
 ----------------------------------------------------
 Alpha orbitals:
  - Frozen occupied        9    0    4    2     15  
  - Active occupied        10   2    7    4     23  
  - Active virtual         93   37   76   49    255 
  - Frozen virtual         0    0    0    0     0   
 ----------------------------------------------------
 Beta orbitals:
  - Frozen occupied        9    0    4    2     15  
  - Active occupied        10   2    7    4     23  
  - Active virtual         93   37   76   49    255 
  - Frozen virtual         0    0    0    0     0   
 ----------------------------------------------------

 Import integrals:   CPU 0.00 s  wall 0.00 s

 Import integrals:   CPU 2804.79 s  wall 396.27 s

 MP2 amplitudes:   CPU 11.46 s  wall 2.07 s

Running a single precision version
I will use integrals, stored in single precision format
           CCSD T amplitudes will be solved using DIIS.

           Start     Size      MaxIter   EConv     TConv     
           3         7         100       1.00e-06  1.00e-04  
 ------------------------------------------------------------------------------
           Energy (a.u.)   Ediff      Tdiff       Comment
 ------------------------------------------------------------------------------
         -2803.82376499                           
     1   -2803.80814481   1.56e-02   1.05e+00     
     2   -2803.84407184   3.59e-02   1.47e-01     
     3   -2803.84231400   1.76e-03   5.19e-02     
     4   -2803.84532355   3.01e-03   1.49e-02     Switched to DIIS steps.
     5   -2803.84625393   9.30e-04   1.13e-02     
     6   -2803.84628765   3.37e-05   2.13e-03     
     7   -2803.84627263   1.50e-05   1.08e-03     
     8   -2803.84627284   2.13e-07   2.15e-04     
     9   -2803.84627284   2.04e-10   7.78e-05     
 ------------------------------------------------------------------------------
         -2803.84627284                           CCSD T converged.

End of single precision
No iterations in double precision will be done
 SCF energy                 = -2802.64932460
 MP2 energy                 = -2803.82376455
 CCSD correlation energy     =    -1.19694824
 CCSD total energy           = -2803.84627284

 CCSD  T1^2 = 0.0080  T2^2 = 0.4312  Leading amplitudes:

 Amplitude    Orbitals with energies
  0.0200       6 (B2) A                  ->    11 (B2) A                  
              -0.3195                          0.4821                     
  0.0200       6 (B2) B                  ->    11 (B2) B                  
              -0.3195                          0.4821                     
 -0.0186       2 (A2) A                  ->    4 (A2) A                   
              -0.3573                          0.4536                     
 -0.0186       2 (A2) B                  ->    4 (A2) B                   
              -0.3573                          0.4536                     

 Amplitude    Orbitals with energies
 -0.0765       2 (A2) A      2 (A2) B    ->    3 (A2) A      3 (A2) B     
              -0.3573       -0.3573            0.1171        0.1171       
  0.0765       2 (A2) A      2 (A2) B    ->    3 (A2) B      3 (A2) A     
              -0.3573       -0.3573            0.1171        0.1171       
  0.0765       2 (A2) B      2 (A2) A    ->    3 (A2) A      3 (A2) B     
              -0.3573       -0.3573            0.1171        0.1171       
 -0.0765       2 (A2) B      2 (A2) A    ->    3 (A2) B      3 (A2) A     
              -0.3573       -0.3573            0.1171        0.1171       

 Computing CCSD intemediates for later calculations in single precision
 Finished.

 CCSD calculation:   CPU 1883.38 s  wall 274.79 s

 EOMEE-CCSD calculation:   CPU 117.05 s  wall 289.61 s

        Solving for EOMIP-CCSD B2 transitions.

Running a single precision version
      EOMIP-CCSD/MP2 right amplitudes will be solved using Davidson.
      Amplitudes will be solved using standard  algorithm
      Roots     MaxVec    MaxIter   Precond   Conv      Thresh    Shift    
      1         60        60        1         1.00e-06  1.00e-06  0.00e+00  
 ------------------------------------------------------------------------------
      Iter ConvRoots NVecs ResNorm Current eigenvalues (eV)
 ------------------------------------------------------------------------------
      0    0      1     9.72e-02   10.9420   
      1    0      2     4.18e-02   9.2892   
      2    0      3     1.30e-03   8.7663   
      3    0      4     1.35e-04   8.7440   
      4    0      5     2.20e-05   8.7399   
      5    0      6     3.43e-06   8.7392   
      6    1      7     6.71e-07   8.7393*  

     Davidson procedure converged

 EOMIP transition 1/B2
 Total energy = -2803.52510942 a.u.  Excitation energy = 8.7393 eV.
 R1^2 = 0.9410  R2^2 = 0.0590  Res^2 = 6.71e-07
 Conv-d = yes

 Amplitude    Transitions between orbitals
 -0.9685       6 (B2) A                  ->    infty        
  0.0554       5 (B2) A                  ->    infty        
  0.0049       4 (B2) A                  ->    infty        
  0.0002       3 (B2) A                  ->    infty        

              Summary of significant orbitals:

               Number  Type             Irrep      Energy
               17      Occ  Alpha       3 (B2)     -3.1897
               32      Occ  Alpha       4 (B2)     -0.5303
               35      Occ  Alpha       5 (B2)     -0.4418
               38      Occ  Alpha       6 (B2)     -0.3195


Running a single precision version
      EOMIP-CCSD/MP2 left amplitudes will be solved using Davidson.
      Amplitudes will be solved using MOM  algorithm
      Roots     MaxVec    MaxIter   Precond   Conv      Thresh    Shift    
      1         60        60        1         1.00e-06  1.00e-06  0.00e+00  
 ------------------------------------------------------------------------------
      Iter ConvRoots NVecs ResNorm Current eigenvalues (eV)
 ------------------------------------------------------------------------------
      0    0      1     3.25e-03   8.7393   
      1    0      2     1.47e-03   8.7393   
      2    0      3     6.23e-05   8.7393   
      3    0      4     4.48e-06   8.7393   
      4    1      5     5.72e-07   8.7393*  

     Davidson procedure converged

Running a double precision version
           EOM amplitude response will be solved using DIIS.
           Start     Size      MaxIter   EConv     ZConv     
           3         7         100       1.00e-06  1.00e-06  
 ------------------------------------------------------------------------------
            Enorm      Zdiff       Comment
 ------------------------------------------------------------------------------
     1     9.62e-02   5.32e-02     
     2     3.27e-02   2.02e-02     
     3     1.59e-02   7.24e-03     
     4     5.36e-03   5.47e-03     Switched to DIIS steps.
     5     2.76e-03   1.26e-03     
     6     1.14e-03   5.57e-04     
     7     6.17e-04   1.24e-04     
     8     3.60e-04   5.37e-05     
     9     1.56e-04   3.13e-05     
    10     6.88e-05   9.92e-06     
    11     2.13e-05   2.22e-06     
    12     8.26e-06   8.63e-07     
    13     2.99e-06   4.53e-07     
    14     1.44e-06   3.22e-07     
    15     6.87e-07   1.95e-07     
 ------------------------------------------------------------------------------
                                   Amplitude response converged.

           Orbital response amplitudes will be solved using DIIS.
           Start     Size      MaxIter   EConv     LConv     
           3         7         100       1.00e-06  1.00e-06  
 ------------------------------------------------------------------------------
            Enorm      Ldiff       Comment
 ------------------------------------------------------------------------------
     1     1.10e-01   7.83e-04     
     2     7.87e-02   1.56e-02     
     3     9.81e-02   4.14e-02     
     4     2.40e-02   2.90e-02     Switched to DIIS steps.
     5     1.52e-02   5.94e-03     
     6     1.56e-02   6.24e-03     
     7     1.43e-02   1.48e-02     
     8     9.43e-03   4.58e-03     
     9     2.57e-03   5.73e-02     
    10     1.11e-03   1.05e-02     
    11     6.84e-04   1.19e-03     
    12     2.54e-04   2.52e-04     
    13     1.21e-04   4.21e-05     
    14     5.21e-05   4.32e-05     
    15     3.59e-05   7.13e-07     
    16     1.63e-05   1.92e-05     
    17     1.12e-05   1.42e-05     
    18     1.03e-05   8.33e-06     
    19     1.05e-05   4.97e-06     
    20     9.82e-06   9.12e-06     
    21     6.52e-06   3.68e-05     
    22     4.07e-06   3.10e-05     
    23     1.95e-06   1.75e-05     
    24     1.14e-06   3.43e-06     
    25     7.05e-07   1.10e-06     
    26     3.85e-07   5.25e-07     
 ------------------------------------------------------------------------------
                                   Orbital response converged.

 EOMIP-CCSD calculation:   CPU 4540.33 s  wall 2558.62 s

 Transferring MO TPDM to AO TPDM
 Transferring g2_o1o1o1o1
 Transferring g2_o1o1o1v1
 Transferring g2_o1o1v1v1
 Transferring g2_o1v1o1v1
 Transferring g2_o1v1v1v1
 Transferring g2_v1v1v1v1
 Adding separable TPDM
 Computing TPDM gradient
 --------------------------------------------------------
 2e gradient
  Atom          X               Y               Z
 --------------------------------------------------------
    1          5.702440       -0.000000       -2.102528  
    2          8.749043        0.000000        1.370707  
    3          6.919440       -0.000000        8.089654  
    4          4.636272       -0.000000        2.735648  
    5          0.000000        0.000000        9.649548  
    6          0.000000        0.000000        5.348280  
    7         -6.919440       -0.000000        8.089654  
    8         -4.636272       -0.000000        2.735648  
    9         -8.749043        0.000000        1.370707  
   10         -5.702440       -0.000000       -2.102528  
   11          0.000000       -0.000000       11.318358  
   12         -0.000000        0.000000      -46.503148  
 --------------------------------------------------------
 --------------------------------------------------------
 Final gradient
  Atom          X               Y               Z
 --------------------------------------------------------
    1          5.702440       -0.000000       -2.102528  
    2          8.749043        0.000000        1.370707  
    3          6.919440       -0.000000        8.089654  
    4          4.636272       -0.000000        2.735648  
    5          0.000000        0.000000        9.649548  
    6          0.000000        0.000000        5.348280  
    7         -6.919440       -0.000000        8.089654  
    8         -4.636272       -0.000000        2.735648  
    9         -8.749043        0.000000        1.370707  
   10         -5.702440       -0.000000       -2.102528  
   11          0.000000       -0.000000       11.318358  
   12         -0.000000        0.000000      -46.503148  
 --------------------------------------------------------
 Analytic gradient from two-electron contribution:   CPU 120861.12 s  wall 16941.12 s

 Total ccman2 time:   CPU 130294.71 s  wall 20479.64 s


 --------------------------------------------------------------
             Orbital Energies (a.u.) and Symmetries
 --------------------------------------------------------------

 Alpha MOs, Unrestricted
 -- Occupied --                  
-490.02  -65.16  -58.52  -11.30  -11.25  -11.25  -11.25   -9.84
  1 A1    2 A1    3 A1    4 A1    5 A1    6 A1    7 A1    8 A1                 
 -7.450 -58.517 -11.252 -11.248  -7.443 -58.517  -7.443  -3.193
  9 A1    1 B1    2 B1    3 B1    4 B1    1 B2    2 B2   10 A1                 
 -3.181  -1.170  -1.078  -0.966  -0.818  -0.707  -0.646  -0.569
 11 A1   12 A1   13 A1   14 A1   15 A1   16 A1   17 A1   18 A1                 
 -0.501  -3.181  -0.357  -3.189  -1.037  -0.837  -0.640  -0.610
 19 A1    1 A2    2 A2    5 B1    6 B1    7 B1    8 B1    9 B1                 
 -0.511  -0.415  -3.190  -0.530  -0.442  -0.320
 10 B1   11 B1    3 B2    4 B2    5 B2    6 B2                                 
 -- Virtual --                   
  0.137   0.171   0.181   0.205   0.310   0.382   0.391   0.413
 20 A1   21 A1   22 A1   23 A1   24 A1   25 A1   26 A1   27 A1                 
  0.476   0.499   0.539   0.546   0.580   0.613   0.636   0.676
 28 A1   29 A1   30 A1   31 A1   32 A1   33 A1   34 A1   35 A1                 
  0.718   0.761   0.801   0.918   0.944   0.985   1.047   1.083
 36 A1   37 A1   38 A1   39 A1   40 A1   41 A1   42 A1   43 A1                 
  1.118   1.219   1.285   1.320   1.377   1.474   1.541   1.596
 44 A1   45 A1   46 A1   47 A1   48 A1   49 A1   50 A1   51 A1                 
  1.625   1.670   1.730   1.857   1.886   2.019   2.097   2.178
 52 A1   53 A1   54 A1   55 A1   56 A1   57 A1   58 A1   59 A1                 
  2.196   2.286   2.334   2.453   2.593   2.669   2.718   2.774
 60 A1   61 A1   62 A1   63 A1   64 A1   65 A1   66 A1   67 A1                 
  2.835   3.001   3.038   3.106   3.143   3.256   3.317   3.354
 68 A1   69 A1   70 A1   71 A1   72 A1   73 A1   74 A1   75 A1                 
  3.381   3.405   3.423   3.447   3.595   3.631   3.732   3.863
 76 A1   77 A1   78 A1   79 A1   80 A1   81 A1   82 A1   83 A1                 
[...]
      XXXX    -243.3528   XXXY       0.0000   XXYY     -64.9906
      XYYY       0.0000   YYYY     -56.7499   XXXZ       0.0000
      XXYZ      -0.0000   XYYZ      -0.0000   YYYZ      -0.0000
      XXZZ    -178.6554   XYZZ       0.0000   YYZZ    -184.0228
      XZZZ      -0.0000   YZZZ      -0.0000   ZZZZ    -724.7728
 -----------------------------------------------------------------
 DrvMan completing analytic gradient of the correlated energy
 Correlated dipole moment
            1
    1   0.0000000
    2   0.0000000
    3  -1.6770986
 Energy read as -2803.525253507
 Full Analytical Gradient: (in a.u., or Hartree/Bohr)
             1             2             3             4             5
    1    0.00001091    0.00001765    0.00006529   -0.00002505   -0.00000000
    2   -0.00000000    0.00000000    0.00000000    0.00000000   -0.00000000
    3   -0.00000268    0.00002356    0.00005105    0.00000621   -0.00015208
             6             7             8             9            10
    1   -0.00000000   -0.00006529    0.00002505   -0.00001765   -0.00001091
    2   -0.00000000   -0.00000000   -0.00000000   -0.00000000    0.00000000
    3    0.00002278    0.00005105    0.00000621    0.00002356   -0.00000268
            11            12
    1   -0.00000000   -0.00000000
    2    0.00000000   -0.00000000
    3    0.00006109   -0.00008806
 Gradient time:  CPU 1.81 s  wall 3.25 s
 Geometry Optimization Parameters
   NAtoms,    NIC,     NZ,  NCons,   NDum,   NFix, NCnnct, MaxDiis
       12      78       0       0       0       0       0       0

 Cartesian Hessian Update
 Hessian Updated using BFGS Update


** GEOMETRY OPTIMIZATION IN DELOCALIZED INTERNAL COORDINATES **
   Searching for a Minimum

   Optimization Cycle:   4

                       Coordinates (Angstroms)
     ATOM                X               Y               Z
      1  H        -2.1662499668    0.0000000000   -0.1600072082
      2  C        -1.2443769763    0.0000000000   -0.7219689559
      3  C        -1.2333299872    0.0000000000   -2.0931459334
      4  H        -2.1593433045    0.0000000000   -2.6479580489
      5  C         0.0000000000    0.0000000000   -2.7829651288
      6  H         0.0000000000    0.0000000000   -3.8640997101
      7  C         1.2333299872    0.0000000000   -2.0931459334
      8  H         2.1593433045    0.0000000000   -2.6479580489
      9  C         1.2443769763    0.0000000000   -0.7219689559
     10  H         2.1662499668    0.0000000000   -0.1600072082
     11  C         0.0000000000    0.0000000000   -0.0294844137
     12  Br        0.0000000000    0.0000000000    1.7909661055
   Point Group: c2v   Number of degrees of freedom:    11


   Energy is  -2803.525253507

 Hessian Updated using BFGS Update

 11 Hessian modes will be used to form the next step
  Hessian Eigenvalues:
     0.117223    0.160609    0.216597    0.228678    0.344324    0.358556
     0.359233    0.361734    0.433873    0.468332    0.478184

 Minimum Search - Taking Simple RFO Step
 Searching for Lamda that Minimizes Along All modes
 Value Taken    Lamda =   0.00000000
 Step Taken.  Stepsize is  0.000772

                             Maximum     Tolerance    Cnvgd?
         Gradient           0.000102      0.000300     YES
         Displacement       0.000483      0.001200     YES
         Energy change     -0.000011      0.000001      NO


                       Distance Matrix (Angstroms)
             H (  1)   C (  2)   C (  3)   H (  4)   C (  5)   H (  6)
   C (  2)  1.079653
   C (  3)  2.146477  1.371221
   H (  4)  2.487960  2.132275  1.079499
   C (  5)  3.401845  2.407526  1.413136  2.163560
   H (  6)  4.291030  3.379565  2.158096  2.478258  1.081135
   C (  7)  3.910776  2.831812  2.466660  3.437739  1.413136  2.158096
   H (  8)  4.990056  3.910850  3.437739  4.318687  2.163560  2.478258
   C (  9)  3.456614  2.488754  2.831812  3.910850  2.407526  3.379565
   H ( 10)  4.332500  3.456614  3.910776  4.990056  3.401845  4.291030
   C ( 11)  2.170179  1.424082  2.404122  3.393990  2.753481  3.834615
   Br( 12)  2.915293  2.804161  4.075221  4.936275  4.573931  5.655066
             C (  7)   H (  8)   C (  9)   H ( 10)   C ( 11)
   H (  8)  1.079499
   C (  9)  1.371221  2.132275
   H ( 10)  2.146477  2.487960  1.079653
   C ( 11)  2.404122  3.393990  1.424082  2.170179
   Br( 12)  4.075221  4.936275  2.804161  2.915293  1.820451

 Final energy is   -2803.5252535065461     


 ******************************
 **  OPTIMIZATION CONVERGED  **
 ******************************

                       Coordinates (Angstroms)
     ATOM                X               Y               Z
      1  H        -2.1662499668    0.0000000000   -0.1600072082
      2  C        -1.2443769763    0.0000000000   -0.7219689559
      3  C        -1.2333299872    0.0000000000   -2.0931459334
      4  H        -2.1593433045    0.0000000000   -2.6479580489
      5  C         0.0000000000    0.0000000000   -2.7829651288
      6  H         0.0000000000    0.0000000000   -3.8640997101
      7  C         1.2333299872    0.0000000000   -2.0931459334
      8  H         2.1593433045    0.0000000000   -2.6479580489
      9  C         1.2443769763    0.0000000000   -0.7219689559
     10  H         2.1662499668    0.0000000000   -0.1600072082
     11  C         0.0000000000    0.0000000000   -0.0294844137
     12  Br        0.0000000000    0.0000000000    1.7909661055

Z-matrix Print:
$molecule
0 1
Br
C  1 1.820451
C  2 1.424082 1 119.095542
H  3 1.079653 2 119.538518 1 -0.000000 0
C  3 1.371221 2 118.633945 1 -180.000000 0
H  5 1.079499 3 120.465937 2 -180.000000 0
C  5 1.413136 3 119.680510 2 -0.000000 0
H  7 1.081135 5 119.218913 3 -180.000000 0
C  7 1.413136 5 121.562175 3 -0.000000 0
H  9 1.079499 7 119.853553 5 -180.000000 0
C  9 1.371221 7 119.680510 5 -0.000000 0
H  11 1.079653 9 121.827538 7 -180.000000 0
$end


 --------------------------------------------------------------
             Orbital Energies (a.u.) and Symmetries
 --------------------------------------------------------------

 Alpha MOs, Unrestricted
 -- Occupied --                  
-490.02  -65.16  -58.52  -11.30  -11.25  -11.25  -11.25   -9.84
  1 A1    2 A1    3 A1    4 A1    5 A1    6 A1    7 A1    8 A1                 
 -7.449 -58.516 -11.251 -11.248  -7.442 -58.517  -7.442  -3.193
  9 A1    1 B1    2 B1    3 B1    4 B1    1 B2    2 B2   10 A1                 
 -3.180  -1.171  -1.078  -0.965  -0.817  -0.707  -0.646  -0.569
 11 A1   12 A1   13 A1   14 A1   15 A1   16 A1   17 A1   18 A1                 
 -0.502  -3.180  -0.358  -3.189  -1.037  -0.838  -0.641  -0.611
 19 A1    1 A2    2 A2    5 B1    6 B1    7 B1    8 B1    9 B1                 
 -0.511  -0.415  -3.189  -0.531  -0.441  -0.319
 10 B1   11 B1    3 B2    4 B2    5 B2    6 B2                                 
 -- Virtual --                   
  0.137   0.171   0.181   0.204   0.309   0.383   0.392   0.413
 20 A1   21 A1   22 A1   23 A1   24 A1   25 A1   26 A1   27 A1                 
  0.475   0.499   0.539   0.546   0.580   0.613   0.636   0.675
 28 A1   29 A1   30 A1   31 A1   32 A1   33 A1   34 A1   35 A1                 
  0.719   0.761   0.802   0.917   0.945   0.985   1.047   1.084
 36 A1   37 A1   38 A1   39 A1   40 A1   41 A1   42 A1   43 A1                 
  1.117   1.218   1.287   1.324   1.378   1.473   1.538   1.593
 44 A1   45 A1   46 A1   47 A1   48 A1   49 A1   50 A1   51 A1                 
  1.625   1.667   1.728   1.857   1.890   2.016   2.099   2.182
 52 A1   53 A1   54 A1   55 A1   56 A1   57 A1   58 A1   59 A1                 
  2.199   2.289   2.329   2.446   2.594   2.669   2.723   2.775
 60 A1   61 A1   62 A1   63 A1   64 A1   65 A1   66 A1   67 A1                 
  2.834   3.004   3.037   3.104   3.144   3.255   3.314   3.355
 68 A1   69 A1   70 A1   71 A1   72 A1   73 A1   74 A1   75 A1                 
  3.381   3.408   3.422   3.449   3.600   3.629   3.734   3.861
 76 A1   77 A1   78 A1   79 A1   80 A1   81 A1   82 A1   83 A1                 
  3.904   3.965   4.081   4.105   4.178   4.288   4.436   4.472
 84 A1   85 A1   86 A1   87 A1   88 A1   89 A1   90 A1   91 A1                 
  4.494   4.555   4.632   4.682   4.761   4.894   4.993   5.055
 92 A1   93 A1   94 A1   95 A1   96 A1   97 A1   98 A1   99 A1                 
  5.202   5.339   5.419   5.479   5.882   5.973   6.077   6.421
100 A1  101 A1  102 A1  103 A1  104 A1  105 A1  106 A1  107 A1                 
  6.736   8.984  12.212  13.195  15.903   0.117   0.453   0.518
108 A1  109 A1  110 A1  111 A1  112 A1    3 A2    4 A2    5 A2                 
  0.597   0.831   0.846   0.945   1.198   1.270   1.473   1.569
  6 A2    7 A2    8 A2    9 A2   10 A2   11 A2   12 A2   13 A2                 
  1.715   1.944   2.066   2.437   2.545   2.632   2.951   3.036
 14 A2   15 A2   16 A2   17 A2   18 A2   19 A2   20 A2   21 A2                 
  3.060   3.224   3.357   3.430   3.457   3.636   3.677   3.768
 22 A2   23 A2   24 A2   25 A2   26 A2   27 A2   28 A2   29 A2                 
  3.976   4.058   4.131   4.189   4.412   4.568   4.640   5.089
 30 A2   31 A2   32 A2   33 A2   34 A2   35 A2   36 A2   37 A2                 
  5.112   5.375   0.165   0.206   0.320   0.374   0.407   0.458
 38 A2   39 A2   12 B1   13 B1   14 B1   15 B1   16 B1   17 B1                 
  0.507   0.582   0.589   0.639   0.667   0.727   0.794   0.866
 18 B1   19 B1   20 B1   21 B1   22 B1   23 B1   24 B1   25 B1                 
  0.916   0.973   1.017   1.088   1.249   1.368   1.375   1.474
 26 B1   27 B1   28 B1   29 B1   30 B1   31 B1   32 B1   33 B1                 
  1.487   1.504   1.567   1.625   1.706   1.762   1.888   2.108
 34 B1   35 B1   36 B1   37 B1   38 B1   39 B1   40 B1   41 B1                 
  2.136   2.194   2.306   2.384   2.547   2.611   2.736   2.766
 42 B1   43 B1   44 B1   45 B1   46 B1   47 B1   48 B1   49 B1                 
  2.890   2.978   3.064   3.163   3.298   3.330   3.376   3.404
 50 B1   51 B1   52 B1   53 B1   54 B1   55 B1   56 B1   57 B1                 
  3.434   3.525   3.650   3.680   3.719   3.951   4.095   4.113
 58 B1   59 B1   60 B1   61 B1   62 B1   63 B1   64 B1   65 B1                 
  4.140   4.220   4.354   4.438   4.485   4.525   4.668   4.711
 66 B1   67 B1   68 B1   69 B1   70 B1   71 B1   72 B1   73 B1                 
  4.854   5.036   5.078   5.301   5.348   5.499   5.565   5.902
 74 B1   75 B1   76 B1   77 B1   78 B1   79 B1   80 B1   81 B1                 
  6.258   6.295   6.365   7.126  12.814  13.835   0.104   0.300
 82 B1   83 B1   84 B1   85 B1   86 B1   87 B1    7 B2    8 B2                 
  0.394   0.435   0.482   0.567   0.574   0.664   0.757   0.915
  9 B2   10 B2   11 B2   12 B2   13 B2   14 B2   15 B2   16 B2                 
  1.045   1.165   1.199   1.252   1.432   1.520   1.707   1.779
 17 B2   18 B2   19 B2   20 B2   21 B2   22 B2   23 B2   24 B2                 
  1.963   2.085   2.246   2.333   2.473   2.538   2.817   2.824
 25 B2   26 B2   27 B2   28 B2   29 B2   30 B2   31 B2   32 B2                 
  2.940   2.990   3.006   3.162   3.211   3.268   3.462   3.483
 33 B2   34 B2   35 B2   36 B2   37 B2   38 B2   39 B2   40 B2                 
  3.607   3.654   3.721   3.939   4.082   4.139   4.166   4.334
 41 B2   42 B2   43 B2   44 B2   45 B2   46 B2   47 B2   48 B2                 
  4.474   4.617   4.713   5.018   5.035   5.232   5.708
 49 B2   50 B2   51 B2   52 B2   53 B2   54 B2   55 B2                         

 Beta MOs, Unrestricted
 -- Occupied --                  
-490.02  -65.16  -58.52  -11.30  -11.25  -11.25  -11.25   -9.84
  1 A1    2 A1    3 A1    4 A1    5 A1    6 A1    7 A1    8 A1                 
 -7.449 -58.516 -11.251 -11.248  -7.442 -58.517  -7.442  -3.193
  9 A1    1 B1    2 B1    3 B1    4 B1    1 B2    2 B2   10 A1                 
 -3.180  -1.171  -1.078  -0.965  -0.817  -0.707  -0.646  -0.569
 11 A1   12 A1   13 A1   14 A1   15 A1   16 A1   17 A1   18 A1                 
 -0.502  -3.180  -0.358  -3.189  -1.037  -0.838  -0.641  -0.611
 19 A1    1 A2    2 A2    5 B1    6 B1    7 B1    8 B1    9 B1                 
 -0.511  -0.415  -3.189  -0.531  -0.441  -0.319
 10 B1   11 B1    3 B2    4 B2    5 B2    6 B2                                 
 -- Virtual --                   
  0.137   0.171   0.181   0.204   0.309   0.383   0.392   0.413
 20 A1   21 A1   22 A1   23 A1   24 A1   25 A1   26 A1   27 A1                 
  0.475   0.499   0.539   0.546   0.580   0.613   0.636   0.675
 28 A1   29 A1   30 A1   31 A1   32 A1   33 A1   34 A1   35 A1                 
  0.719   0.761   0.802   0.917   0.945   0.985   1.047   1.084
 36 A1   37 A1   38 A1   39 A1   40 A1   41 A1   42 A1   43 A1                 
  1.117   1.218   1.287   1.324   1.378   1.473   1.538   1.593
 44 A1   45 A1   46 A1   47 A1   48 A1   49 A1   50 A1   51 A1                 
  1.625   1.667   1.728   1.857   1.890   2.016   2.099   2.182
 52 A1   53 A1   54 A1   55 A1   56 A1   57 A1   58 A1   59 A1                 
  2.199   2.289   2.329   2.446   2.594   2.669   2.723   2.775
 60 A1   61 A1   62 A1   63 A1   64 A1   65 A1   66 A1   67 A1                 
  2.834   3.004   3.037   3.104   3.144   3.255   3.314   3.355
 68 A1   69 A1   70 A1   71 A1   72 A1   73 A1   74 A1   75 A1                 
  3.381   3.408   3.422   3.449   3.600   3.629   3.734   3.861
 76 A1   77 A1   78 A1   79 A1   80 A1   81 A1   82 A1   83 A1                 
  3.904   3.965   4.081   4.105   4.178   4.288   4.436   4.472
 84 A1   85 A1   86 A1   87 A1   88 A1   89 A1   90 A1   91 A1                 
  4.494   4.555   4.632   4.682   4.761   4.894   4.993   5.055
 92 A1   93 A1   94 A1   95 A1   96 A1   97 A1   98 A1   99 A1                 
  5.202   5.339   5.419   5.479   5.882   5.973   6.077   6.421
100 A1  101 A1  102 A1  103 A1  104 A1  105 A1  106 A1  107 A1                 
  6.736   8.984  12.212  13.195  15.903   0.117   0.453   0.518
108 A1  109 A1  110 A1  111 A1  112 A1    3 A2    4 A2    5 A2                 
  0.597   0.831   0.846   0.945   1.198   1.270   1.473   1.569
  6 A2    7 A2    8 A2    9 A2   10 A2   11 A2   12 A2   13 A2                 
  1.715   1.944   2.066   2.437   2.545   2.632   2.951   3.036
 14 A2   15 A2   16 A2   17 A2   18 A2   19 A2   20 A2   21 A2                 
  3.060   3.224   3.357   3.430   3.457   3.636   3.677   3.768
 22 A2   23 A2   24 A2   25 A2   26 A2   27 A2   28 A2   29 A2                 
  3.976   4.058   4.131   4.189   4.412   4.568   4.640   5.089
 30 A2   31 A2   32 A2   33 A2   34 A2   35 A2   36 A2   37 A2                 
  5.112   5.375   0.165   0.206   0.320   0.374   0.407   0.458
 38 A2   39 A2   12 B1   13 B1   14 B1   15 B1   16 B1   17 B1                 
  0.507   0.582   0.589   0.639   0.667   0.727   0.794   0.866
 18 B1   19 B1   20 B1   21 B1   22 B1   23 B1   24 B1   25 B1                 
  0.916   0.973   1.017   1.088   1.249   1.368   1.375   1.474
 26 B1   27 B1   28 B1   29 B1   30 B1   31 B1   32 B1   33 B1                 
  1.487   1.504   1.567   1.625   1.706   1.762   1.888   2.108
 34 B1   35 B1   36 B1   37 B1   38 B1   39 B1   40 B1   41 B1                 
  2.136   2.194   2.306   2.384   2.547   2.611   2.736   2.766
 42 B1   43 B1   44 B1   45 B1   46 B1   47 B1   48 B1   49 B1                 
  2.890   2.978   3.064   3.163   3.298   3.330   3.376   3.404
 50 B1   51 B1   52 B1   53 B1   54 B1   55 B1   56 B1   57 B1                 
  3.434   3.525   3.650   3.680   3.719   3.951   4.095   4.113
 58 B1   59 B1   60 B1   61 B1   62 B1   63 B1   64 B1   65 B1                 
  4.140   4.220   4.354   4.438   4.485   4.525   4.668   4.711
 66 B1   67 B1   68 B1   69 B1   70 B1   71 B1   72 B1   73 B1                 
  4.854   5.036   5.078   5.301   5.348   5.499   5.565   5.902
 74 B1   75 B1   76 B1   77 B1   78 B1   79 B1   80 B1   81 B1                 
  6.258   6.295   6.365   7.126  12.814  13.835   0.104   0.300
 82 B1   83 B1   84 B1   85 B1   86 B1   87 B1    7 B2    8 B2                 
  0.394   0.435   0.482   0.567   0.574   0.664   0.757   0.915
  9 B2   10 B2   11 B2   12 B2   13 B2   14 B2   15 B2   16 B2                 
  1.045   1.165   1.199   1.252   1.432   1.520   1.707   1.779
 17 B2   18 B2   19 B2   20 B2   21 B2   22 B2   23 B2   24 B2                 
  1.963   2.085   2.246   2.333   2.473   2.538   2.817   2.824
 25 B2   26 B2   27 B2   28 B2   29 B2   30 B2   31 B2   32 B2                 
  2.940   2.990   3.006   3.162   3.211   3.268   3.462   3.483
 33 B2   34 B2   35 B2   36 B2   37 B2   38 B2   39 B2   40 B2                 
  3.607   3.654   3.721   3.939   4.082   4.139   4.166   4.334
 41 B2   42 B2   43 B2   44 B2   45 B2   46 B2   47 B2   48 B2                 
  4.474   4.617   4.713   5.018   5.035   5.232   5.708
 49 B2   50 B2   51 B2   52 B2   53 B2   54 B2   55 B2                         
 --------------------------------------------------------------

          Ground-State Mulliken Net Atomic Charges

     Atom                 Charge (a.u.)    Spin (a.u.)
  --------------------------------------------------------
      1 H                     0.220240      -0.000189
      2 C                    -0.096214      -0.021203
      3 C                    -0.091649      -0.025450
      4 H                     0.216207       0.003086
      5 C                    -0.033763      -0.317623
      6 H                     0.220815       0.012684
      7 C                    -0.091649      -0.025450
      8 H                     0.216207       0.003086
      9 C                    -0.096214      -0.021203
     10 H                     0.220240      -0.000189
     11 C                     0.026643      -0.334812
     12 Br                    0.289137      -0.272736
  --------------------------------------------------------
  Sum of atomic charges =     1.000000
  Sum of spin   charges =    -1.000000

 -----------------------------------------------------------------
                    Cartesian Multipole Moments
 -----------------------------------------------------------------
    Charge (ESU x 10^10)
                 4.8032
    Dipole Moment (Debye)
         X       0.0000      Y       0.0000      Z      -4.2628
       Tot       4.2628
    Quadrupole Moments (Debye-Ang)
        XX     -39.1582     XY       0.0000     YY     -52.4362
        XZ       0.0000     YZ      -0.0000     ZZ     -23.8136
    Octopole Moments (Debye-Ang^2)
       XXX       0.0000    XXY      -0.0000    XYY       0.0000
       YYY      -0.0000    XXZ       0.2876    XYZ      -0.0000
       YYZ      21.1415    XZZ       0.0000    YZZ       0.0000
       ZZZ       1.2645
    Hexadecapole Moments (Debye-Ang^3)
      XXXX    -243.3528   XXXY       0.0000   XXYY     -64.9906
      XYYY       0.0000   YYYY     -56.7499   XXXZ       0.0000
      XXYZ      -0.0000   XYYZ      -0.0000   YYYZ      -0.0000
      XXZZ    -178.6554   XYZZ       0.0000   YYZZ    -184.0228
      XZZZ      -0.0000   YZZZ      -0.0000   ZZZZ    -724.7728
 -----------------------------------------------------------------
Archival summary:
1\1\node20\OPT\ProcedureUnspecified\BasisUnspecified\r165\krylov\FriSep2803:22:412018FriSep2803:22:412018\0\\#,OPT,ProcedureUnspecified,BasisUnspecified,\\0,1\Br\C,1,1.82045\C,2,1.42408,1,119.096\H,3,1.07965,2,119.539,1,-0,0\C,3,1.37122,2,118.634,1,-180,0\H,5,1.0795,3,120.466,2,-180,0\C,5,1.41314,3,119.681,2,-0,0\H,7,1.08113,5,119.219,3,-180,0\C,7,1.41314,5,121.562,3,-0,0\H,9,1.0795,7,119.854,5,-180,0\C,9,1.37122,7,119.681,5,-0,0\H,11,1.07965,9,121.828,7,-180,0\\HF=-2802.64907\\@

 Total job time:  94177.14s(wall), 619558.77s(cpu) 
 Fri Sep 28 03:22:41 2018

        *************************************************************
        *                                                           *
        *  Thank you very much for using Q-Chem.  Have a nice day.  *
        *                                                           *
        *************************************************************


