Q-Chem Developer Version!
                  Welcome to Q-Chem
     A Quantum Leap Into The Future Of Chemistry


 Q-Chem 5.1, Q-Chem, Inc., Pleasanton, CA (2018)

 Yihan Shao,  Zhengting Gan,  E. Epifanovsky,  A. T. B. Gilbert,  M. Wormit,  
 J. Kussmann,  A. W. Lange,  A. Behn,  Jia Deng,  Xintian Feng,  D. Ghosh,  
 M. Goldey,  P. R. Horn,  L. D. Jacobson,  I. Kaliman,  T. Kus,  A. Landau,  
 Jie Liu,  E. I. Proynov,  R. M. Richard,  R. P. Steele,  E. J. Sundstrom,  
 H. L. Woodcock III,  P. M. Zimmerman,  D. Zuev,  B. Albrecht,  E. Alguire,  
 S. A. Baeppler,  D. Barton,  Z. Benda,  Y. A. Bernard,  E. J. Berquist,  
 K. B. Bravaya,  H. Burton,  D. Casanova,  Chun-Min Chang,  Yunqing Chen,  
 A. Chien,  K. D. Closser,  M. P. Coons,  S. Coriani,  S. Dasgupta,  
 A. L. Dempwolff,  M. Diedenhofen,  Hainam Do,  R. G. Edgar,  Po-Tung Fang,  
 S. Faraji,  S. Fatehi,  Qingguo Feng,  K. D. Fenk,  J. Fosso-Tande,  
 Qinghui Ge,  A. Ghysels,  G. Gidofalvi,  J. Gomes,  J. Gonthier,  A. Gunina,  
 D. Hait,  M. W. D. Hanson-Heine,  P. H. P. Harbach,  A. W. Hauser,  
 J. E. Herr,  E. G. Hohenstein,  Z. C. Holden,  Kerwin Hui,  B. C. Huynh,  
 T.-C. Jagau,  Hyunjun Ji,  B. Kaduk,  K. Khistyaev,  Jaehoon Kim,  
 P. Klunzinger,  K. Koh,  D. Kosenkov,  L. Koulias,  T. Kowalczyk,  
 C. M. Krauter,  A. Kunitsa,  Ka Un Lao,  A. Laurent,  K. V. Lawler,  
 Joonho Lee,  D. Lefrancois,  S. Lehtola,  D. S. Levine,  Yi-Pei Li,  
 You-Sheng Lin,  Fenglai Liu,  E. Livshits,  A. Luenser,  P. Manohar,  
 E. Mansoor,  S. F. Manzer,  Shan-Ping Mao,  Yuezhi Mao,  N. Mardirossian,  
 A. V. Marenich,  T. Markovich,  L. A. Martinez-Martinez,  S. A. Maurer,  
 N. J. Mayhall,  S. C. McKenzie,  J.-M. Mewes,  A. F. Morrison,  
 J. W. Mullinax,  K. Nanda,  T. S. Nguyen-Beck,  R. Olivares-Amaya,  
 J. A. Parkhill,  T. M. Perrine,  F. Plasser,  P. Pokhilko,  S. Prager,  
 A. Prociuk,  E. Ramos,  D. R. Rehn,  F. Rob,  M. Schneider,  N. Sergueev,  
 S. M. Sharada,  S. Sharma,  D. W. Small,  T. Stauch,  T. Stein,  
 Yu-Chuan Su,  A. J. W. Thom,  A. Tkatchenko,  T. Tsuchimochi,  N. M. Tubman,  
 L. Vogt,  M. L. Vidal,  O. Vydrov,  M. A. Watson,  J. Wenzel,  
 M. de Wergifosse,  T. A. Wesolowski,  A. White,  J. Witte,  A. Yamada,  
 Jun Yang,  K. Yao,  S. Yeganeh,  S. R. Yost,  Zhi-Qiang You,  A. Zech,  
 Igor Ying Zhang,  Xing Zhang,  Yan Zhao,  Ying Zhu,  B. R. Brooks,  
 G. K. L. Chan,  C. J. Cramer,  M. S. Gordon,  W. J. Hehre,  A. Klamt,  
 M. W. Schmidt,  C. D. Sherrill,  D. G. Truhlar,  A. Aspuru-Guzik,  R. Baer,  
 A. T. Bell,  N. A. Besley,  Jeng-Da Chai,  A. E. DePrince, III,  
 R. A. DiStasio Jr.,  A. Dreuw,  B. D. Dunietz,  T. R. Furlani,  
 Chao-Ping Hsu,  Yousung Jung,  Jing Kong,  D. S. Lambrecht,  WanZhen Liang,  
 C. Ochsenfeld,  V. A. Rassolov,  L. V. Slipchenko,  J. E. Subotnik,  
 T. Van Voorhis,  J. M. Herbert,  A. I. Krylov,  P. M. W. Gill,  M. Head-Gordon

 Contributors to earlier versions of Q-Chem not listed above: 
 R. D. Adamson,  B. Austin,  J. Baker,  G. J. O. Beran,  K. Brandhorst,  
 S. T. Brown,  E. F. C. Byrd,  A. K. Chakraborty,  C.-L. Cheng,  
 Siu Hung Chien,  D. M. Chipman,  D. L. Crittenden,  H. Dachsel,  
 R. J. Doerksen,  A. D. Dutoi,  L. Fusti-Molnar,  W. A. Goddard III,  
 A. Golubeva-Zadorozhnaya,  S. R. Gwaltney,  G. Hawkins,  A. Heyden,  
 S. Hirata,  G. Kedziora,  F. J. Keil,  C. Kelley,  Jihan Kim,  R. A. King,  
 R. Z. Khaliullin,  P. P. Korambath,  W. Kurlancheek,  A. M. Lee,  M. S. Lee,  
 S. V. Levchenko,  Ching Yeh Lin,  D. Liotard,  R. C. Lochan,  I. Lotan,  
 P. E. Maslen,  N. Nair,  D. P. O'Neill,  D. Neuhauser,  E. Neuscamman,  
 C. M. Oana,  R. Olson,  B. Peters,  R. Peverati,  P. A. Pieniazek,  
 Y. M. Rhee,  J. Ritchie,  M. A. Rohrdanz,  E. Rosta,  N. J. Russ,  
 H. F. Schaefer III,  N. E. Schultz,  N. Shenvi,  A. C. Simmonett,  A. Sodt,  
 D. Stuck,  K. S. Thanthiriwatte,  V. Vanovschi,  Tao Wang,  A. Warshel,  
 C. F. Williams,  Q. Wu,  X. Xu,  W. Zhang

 Please cite Q-Chem as follows:
 Y. Shao et al., Mol. Phys. 113, 184-215 (2015)
 DOI: 10.1080/00268976.2014.952696

 Q-Chem 5.1.1 for Intel X86 EM64T Linux

 Parts of Q-Chem use Armadillo 8.300.2 (Tropical Shenanigans).
 http://arma.sourceforge.net/

 Q-Chem begins on Sun Oct 14 07:57:12 2018  

node20
Host: 0

     Scratch files written to /scratch/krylov/qchem28556//
Core orbitals will be frozen
Input Ideriv = 1
Curr. Ideriv = -1
Max.  Ideriv = 1

Checking the input file for inconsistencies... 	...done.

--------------------------------------------------------------
User input:
--------------------------------------------------------------
$comment
Optimized Br-Bz, EOM-IP calculation at the neutral geom (oprimized ri-MP2/cc-pVTZ)
$end

$molecule
0 1
H        -2.1434404908    0.0000000000    0.0671963029
C        -1.2132672529    0.0000000000   -0.4819994175
C        -1.2050294832    0.0000000000   -1.8750832747
H        -2.1443854307    0.0000000000   -2.4107048522
C         0.0000000000    0.0000000000   -2.5742906665
H         0.0000000000    0.0000000000   -3.6551007732
C         1.2050294832    0.0000000000   -1.8750832747
H         2.1443854307    0.0000000000   -2.4107048522
C         1.2132672529    0.0000000000   -0.4819994175
H         2.1434404908    0.0000000000    0.0671963029
C         0.0000000000    0.0000000000    0.2007961851
Br        0.0000000000    0.0000000000    2.0847967058
$end

$rem
   JOB_TYPE  =  SP
   BASIS  =  cc-pVTZ
   METHOD  =  EOM-CCSD
   IP_STATES = [2,2,2,2]
   EOM_DAVIDSON_MAXVECTORS = 120
   CC_MEMORY = 80000
   cc_trans_prop = 1
$end
--------------------------------------------------------------
 ----------------------------------------------------------------
             Standard Nuclear Orientation (Angstroms)
    I     Atom           X                Y                Z
 ----------------------------------------------------------------
    1      H      -2.1434404908     0.0000000000    -0.2235906397
    2      C      -1.2132672529    -0.0000000000    -0.7727863601
    3      C      -1.2050294832    -0.0000000000    -2.1658702173
    4      H      -2.1443854307    -0.0000000000    -2.7014917948
    5      C       0.0000000000    -0.0000000000    -2.8650776091
    6      H       0.0000000000    -0.0000000000    -3.9458877158
    7      C       1.2050294832    -0.0000000000    -2.1658702173
    8      H       2.1443854307    -0.0000000000    -2.7014917948
    9      C       1.2132672529    -0.0000000000    -0.7727863601
   10      H       2.1434404908    -0.0000000000    -0.2235906397
   11      C       0.0000000000    -0.0000000000    -0.0899907575
   12      Br     -0.0000000000     0.0000000000     1.7940097632
 ----------------------------------------------------------------
 Molecular Point Group                 C2v   NOp =  4
 Largest Abelian Subgroup              C2v   NOp =  4
 Nuclear Repulsion Energy =   432.5066877038 hartrees
 There are       38 alpha and       38 beta electrons
 Requested basis set is cc-pVTZ
 There are 105 shells and 293 basis functions
MEM_TOTAL is adjusted to CC_MEMORY + MEM_STATIC!
 Total memory of 80192MB is distributed as follows: 
   QALLOC including MEM_STATIC uses 192MB
   MEM_STATIC is set to 192MB
   CCMAN JOB total memory use is  80000MB
 Warning: actual memory use might exceed 80192MB

 Total QAlloc Memory Limit    192 MB
 Mega-Array Size       188 MB
 MEM_STATIC part       192 MB

                       Distance Matrix (Angstroms)
             H (  1)   C (  2)   C (  3)   H (  4)   C (  5)   H (  6)
   C (  2)  1.080203
   C (  3)  2.157096  1.393108
   H (  4)  2.477901  2.141702  1.081333
   C (  5)  3.401733  2.418615  1.393193  2.150616
   H (  6)  4.295327  3.397144  2.149548  2.479296  1.080810
   C (  7)  3.871008  2.790850  2.410059  3.391972  1.393193  2.149548
   H (  8)  4.952317  3.872175  3.391972  4.288771  2.150616  2.479296
   C (  9)  3.401338  2.426535  2.790850  3.872175  2.418615  3.397144
   H ( 10)  4.286881  3.401338  3.871008  4.952317  3.401733  4.295327
   C ( 11)  2.147600  1.392202  2.400286  3.379101  2.775087  3.855897
   Br( 12)  2.943645  2.839095  4.139172  4.980755  4.659087  5.739897
             C (  7)   H (  8)   C (  9)   H ( 10)   C ( 11)
   H (  8)  1.081333
   C (  9)  1.393108  2.141702
   H ( 10)  2.157096  2.477901  1.080203
   C ( 11)  2.400286  3.379101  1.392202  2.147600
   Br( 12)  4.139172  4.980755  2.839095  2.943645  1.884001

 A cutoff of  1.0D-14 yielded   5223 shell pairs
 There are     41097 function pairs (     53610 Cartesian)

 -------------------------------------------------------
 OpenMP Integral Computing Module                       
 Release: version 1.0, May 2013, Q-Chem Inc. Pittsburgh 
 -------------------------------------------------------
 Integral Job Info:
 Integral job number is                      11
 Integral operator is                         1
 short-range coefficients                     0
 long-range coefficients              100000000
 Omega coefficients                           0
 if combine SR and LR in K                    0
 Integral screening is                        0
 Integral computing path is                   2
 max size of driver memory is            800000
 size of driver memory is                776718
 size of scratch memory is             26991800
 max col of scratch BK array              10000
 max len of scratch array in speh3          662
 max len of scratch index in speh4           32
 max int batch size is                      520
 min int batch size is                       52
 fixed nKL is                                 4
 max L of basis functions is                  3
 order of int derivative is                   0
 number of shells is                        105
 number of basis is                         334
 number of cartesian basis is               334
 number of contracted shell pairs          5223
 number of primitive shell pairs          24622
 maxK2 (contraction) of shell pair          225
 max number of K2 of shell pair               1
 max number of CS2 of shell pair            622
 max number of PS2 of shell pair           2250
 mem total for path MDJ                  647656
 -------------------------------------------------------
 Smallest overlap matrix eigenvalue = 3.49E-05

 Scale SEOQF with 1.000000e-01/1.000000e+00/1.000000e-01

 Standard Electronic Orientation quadrupole field applied
 Nucleus-field energy     =    -0.0000000255 hartrees
 Guess from superposition of atomic densities
 Warning:  Energy on first SCF cycle will be non-variational
 SAD guess density has 76.000000 electrons

 -----------------------------------------------------------------------
  General SCF calculation program by
  Eric Jon Sundstrom, Paul Horn, Yuezhi Mao, Dmitri Zuev, Alec White,
  David Stuck, Shaama M.S., Shane Yost, Joonho Lee, David Small,
  Daniel Levine, Susi Lehtola, Hugh Burton, Evgeny Epifanovsky
 -----------------------------------------------------------------------
 Hartree-Fock
 using 8 threads for integral computing
 -------------------------------------------------------
 OpenMP Integral computing Module                
 Release: version 2.0, May 2017, Q-Chem Inc. Pleasanton 
 -------------------------------------------------------
 A restricted SCF calculation will be
 performed using DIIS
 SCF converges when DIIS error is below 1.0e-08
 ---------------------------------------
  Cycle       Energy         DIIS error
 ---------------------------------------
    1   -2805.3786056865      3.24e-02  
    2   -2802.5761699554      2.24e-03  
    3   -2802.6432006791      1.03e-03  
    4   -2802.6533195026      4.71e-04  
    5   -2802.6563194619      8.33e-05  
    6   -2802.6564222650      2.56e-05  
    7   -2802.6564395836      9.41e-06  
    8   -2802.6564427201      4.00e-06  
    9   -2802.6564433698      1.59e-06  
   10   -2802.6564434712      7.26e-07  
   11   -2802.6564435092      2.90e-07  
   12   -2802.6564435141      8.64e-08  
   13   -2802.6564435139      1.76e-08  
   14   -2802.6564435141      5.02e-09  Convergence criterion met
 ---------------------------------------
 SCF time:   CPU 1252.95s  wall 158.00s 
 SCF   energy in the final basis set =    -2802.6564435141
 Total energy in the final basis set =    -2802.6564435141


 ------------------------------------------------------------------------------

   CCMAN2: suite of methods based on coupled cluster
           and equation of motion theories.

   Components:
   * libvmm-1.3-trunk
     by Evgeny Epifanovsky, Ilya Kaliman.
   * libtensor-2.5-trunk
     by Evgeny Epifanovsky, Michael Wormit, Dmitry Zuev, Sam Manzer, 
        Ilya Kaliman.
   * libcc-2.5-trunk
     by Evgeny Epifanovsky, Arik Landau, Tomasz Kus, Kirill Khistyaev, 
        Dmitry Zuev, Prashant Manohar, Xintian Feng, Anna Krylov, 
        Matthew Goldey, Alec White, Thomas Jagau, Kaushik Nanda, 
        Anastasia Gunina, Alexander Kunitsa, Joonho Lee.

   CCMAN original authors:
   Anna I. Krylov, C. David Sherrill, Steven R. Gwaltney,
   Edward F. C. Byrd (2000)
   Sergey V. Levchenko, Lyudmila V. Slipchenko, Tao Wang,
   Ana-Maria C. Cristian (2003)
   Piotr A. Pieniazek, C. Melania Oana, Evgeny Epifanovsky (2007)
   Prashant Manohar (2009)

 ------------------------------------------------------------------------------


 Allocating and initializing 80000MB of RAM...
 Calculation will run on 8 cores.


 Alpha MOs, Restricted
 -- Occupied --                  
-490.02  -65.16  -58.52  -58.52  -58.52  -11.30  -11.25  -11.25
  1 A1    2 A1    3 A1    1 B2    1 B1    4 A1    2 B1    5 A1                 
-11.249 -11.249 -11.246  -9.836  -7.447  -7.441  -7.441  -3.191
  6 A1    3 B1    7 A1    8 A1    9 A1    2 B2    4 B1   10 A1                 
 -3.188  -3.187  -3.179  -3.179  -1.175  -1.073  -1.032  -0.974
  3 B2    5 B1    1 A2   11 A1   12 A1   13 A1    6 B1   14 A1                 
 -0.845  -0.817  -0.710  -0.644  -0.644  -0.604  -0.575  -0.533
  7 B1   15 A1   16 A1    8 B1   17 A1    9 B1   18 A1    4 B2                 
 -0.515  -0.493  -0.439  -0.416  -0.352  -0.333
 10 B1   19 A1    5 B2   11 B1    2 A2    6 B2                                 
 -- Virtual --                   
  0.112   0.113   0.133   0.164   0.165   0.179   0.204   0.206
  7 B2    3 A2   20 A1   21 A1   12 B1   22 A1   23 A1   13 B1                 
  0.305   0.314   0.324   0.373   0.375   0.393   0.394   0.404
  8 B2   24 A1   14 B1   15 B1   25 A1   26 A1    9 B2   16 B1                 
  0.409   0.431   0.455   0.458   0.475   0.477   0.497   0.510
 27 A1   10 B2    4 A2   17 B1   11 B2   28 A1   29 A1   18 B1                 
  0.519   0.545   0.549   0.566   0.575   0.578   0.581   0.588
  5 A2   30 A1   31 A1   12 B2   13 B2   19 B1   32 A1   20 B1                 
  0.596   0.613   0.637   0.638   0.664   0.671   0.676   0.720
  6 A2   33 A1   34 A1   21 B1   14 B2   22 B1   35 A1   23 B1                 
  0.722   0.752   0.758   0.791   0.800   0.837   0.847   0.872
 36 A1   15 B2   37 A1   24 B1   38 A1    7 A2    8 A2   25 B1                 
  0.908   0.911   0.921   0.942   0.950   0.979   0.991   1.019
 16 B2   39 A1   26 B1   40 A1    9 A2   27 B1   41 A1   28 B1                 
  1.043   1.046   1.077   1.087   1.114   1.164   1.199   1.202
 17 B2   42 A1   43 A1   29 B1   44 A1   18 B2   10 A2   19 B2                 
  1.230   1.242   1.249   1.278   1.291   1.325   1.363   1.372
 45 A1   30 B1   20 B2   11 A2   46 A1   47 A1   31 B1   48 A1                 
  1.374   1.435   1.477   1.478   1.486   1.494   1.504   1.516
 32 B1   21 B2   12 A2   49 A1   33 B1   34 B1   35 B1   22 B2                 
  1.542   1.564   1.575   1.601   1.613   1.631   1.678   1.703
 50 A1   36 B1   13 A2   51 A1   37 B1   52 A1   53 A1   23 B2                 
  1.711   1.718   1.732   1.759   1.780   1.839   1.875   1.881
 38 B1   14 A2   54 A1   39 B1   24 B2   55 A1   40 B1   56 A1                 
  1.939   1.961   2.006   2.065   2.083   2.094   2.102   2.132
 15 A2   25 B2   57 A1   16 A2   26 B2   58 A1   41 B1   42 B1                 
  2.179   2.193   2.206   2.243   2.287   2.302   2.324   2.328
 59 A1   60 A1   43 B1   27 B2   61 A1   44 B1   62 A1   28 B2                 
  2.385   2.439   2.448   2.464   2.532   2.538   2.542   2.590
 45 B1   17 A2   63 A1   29 B2   46 B1   30 B2   18 A2   64 A1                 
  2.626   2.629   2.668   2.712   2.731   2.768   2.769   2.815
 47 B1   19 A2   65 A1   66 A1   48 B1   49 B1   67 A1   31 B2                 
  2.821   2.834   2.904   2.944   2.945   2.977   2.993   3.004
 68 A1   32 B2   50 B1   20 A2   33 B2   51 B1   34 B2   69 A1                 
  3.010   3.028   3.041   3.044   3.058   3.107   3.133   3.149
 35 B2   70 A1   21 A2   52 B1   22 A2   71 A1   36 B2   72 A1                 
  3.159   3.214   3.220   3.257   3.259   3.309   3.321   3.339
 53 B1   37 B2   23 A2   38 B2   73 A1   54 B1   74 A1   55 B1                 
  3.342   3.366   3.373   3.378   3.409   3.423   3.426   3.428
 75 A1   24 A2   56 B1   76 A1   77 A1   78 A1   25 A2   57 B1                 
  3.430   3.440   3.444   3.456   3.479   3.534   3.580   3.613
 58 B1   79 A1   39 B2   26 A2   40 B2   59 B1   80 A1   41 B2                 
  3.620   3.637   3.652   3.663   3.674   3.681   3.717   3.727
 81 A1   27 A2   42 B2   60 B1   28 A2   61 B1   62 B1   43 B2                 
  3.747   3.785   3.866   3.913   3.947   3.957   3.970   3.979
 82 A1   29 A2   83 A1   84 A1   44 B2   63 B1   30 A2   85 A1                 
  4.070   4.090   4.093   4.114   4.117   4.120   4.135   4.142
 31 A2   45 B2   86 A1   64 B1   87 A1   65 B1   46 B2   32 A2                 
  4.152   4.172   4.188   4.193   4.227   4.295   4.359   4.363
 66 B1   47 B2   88 A1   33 A2   67 B1   89 A1   68 B1   48 B2                 
  4.404   4.427   4.446   4.480   4.488   4.489   4.503   4.526
 34 A2   90 A1   69 B1   91 A1   49 B2   70 B1   92 A1   71 B1                 
  4.573   4.608   4.647   4.653   4.655   4.668   4.669   4.691
 93 A1   35 A2   36 A2   50 B2   94 A1   72 B1   95 A1   51 B2                 
  4.696   4.779   4.781   4.878   4.989   5.023   5.039   5.052
 73 B1   96 A1   97 A1   74 B1   98 A1   52 B2   99 A1   53 B2                 
  5.056   5.094   5.101   5.129   5.209   5.235   5.302   5.338
 75 B1   76 B1   37 A2   38 A2  100 A1   54 B2   77 B1  101 A1                 
  5.365   5.373   5.438   5.484   5.514   5.579   5.717   5.901
 39 A2   78 B1  102 A1  103 A1   79 B1   80 B1   55 B2   81 B1                 
  5.907   5.999   6.074   6.265   6.288   6.410   6.453   6.743
104 A1  105 A1  106 A1   82 B1   83 B1   84 B1  107 A1  108 A1                 
  7.156   9.026  12.495  13.113  13.441  13.717  16.053
 85 B1  109 A1  110 A1   86 B1  111 A1   87 B1  112 A1                         

 Beta MOs, Restricted
 -- Occupied --                  
-490.02  -65.16  -58.52  -58.52  -58.52  -11.30  -11.25  -11.25
  1 A1    2 A1    3 A1    1 B2    1 B1    4 A1    2 B1    5 A1                 
-11.249 -11.249 -11.246  -9.836  -7.447  -7.441  -7.441  -3.191
  6 A1    3 B1    7 A1    8 A1    9 A1    2 B2    4 B1   10 A1                 
 -3.188  -3.187  -3.179  -3.179  -1.175  -1.073  -1.032  -0.974
  3 B2    5 B1    1 A2   11 A1   12 A1   13 A1    6 B1   14 A1                 
 -0.845  -0.817  -0.710  -0.644  -0.644  -0.604  -0.575  -0.533
  7 B1   15 A1   16 A1    8 B1   17 A1    9 B1   18 A1    4 B2                 
 -0.515  -0.493  -0.439  -0.416  -0.352  -0.333
 10 B1   19 A1    5 B2   11 B1    2 A2    6 B2                                 
 -- Virtual --                   
  0.112   0.113   0.133   0.164   0.165   0.179   0.204   0.206
  7 B2    3 A2   20 A1   21 A1   12 B1   22 A1   23 A1   13 B1                 
  0.305   0.314   0.324   0.373   0.375   0.393   0.394   0.404
  8 B2   24 A1   14 B1   15 B1   25 A1   26 A1    9 B2   16 B1                 
  0.409   0.431   0.455   0.458   0.475   0.477   0.497   0.510
 27 A1   10 B2    4 A2   17 B1   11 B2   28 A1   29 A1   18 B1                 
  0.519   0.545   0.549   0.566   0.575   0.578   0.581   0.588
  5 A2   30 A1   31 A1   12 B2   13 B2   19 B1   32 A1   20 B1                 
  0.596   0.613   0.637   0.638   0.664   0.671   0.676   0.720
  6 A2   33 A1   34 A1   21 B1   14 B2   22 B1   35 A1   23 B1                 
  0.722   0.752   0.758   0.791   0.800   0.837   0.847   0.872
 36 A1   15 B2   37 A1   24 B1   38 A1    7 A2    8 A2   25 B1                 
  0.908   0.911   0.921   0.942   0.950   0.979   0.991   1.019
 16 B2   39 A1   26 B1   40 A1    9 A2   27 B1   41 A1   28 B1                 
  1.043   1.046   1.077   1.087   1.114   1.164   1.199   1.202
 17 B2   42 A1   43 A1   29 B1   44 A1   18 B2   10 A2   19 B2                 
  1.230   1.242   1.249   1.278   1.291   1.325   1.363   1.372
 45 A1   30 B1   20 B2   11 A2   46 A1   47 A1   31 B1   48 A1                 
  1.374   1.435   1.477   1.478   1.486   1.494   1.504   1.516
 32 B1   21 B2   12 A2   49 A1   33 B1   34 B1   35 B1   22 B2                 
  1.542   1.564   1.575   1.601   1.613   1.631   1.678   1.703
 50 A1   36 B1   13 A2   51 A1   37 B1   52 A1   53 A1   23 B2                 
  1.711   1.718   1.732   1.759   1.780   1.839   1.875   1.881
 38 B1   14 A2   54 A1   39 B1   24 B2   55 A1   40 B1   56 A1                 
  1.939   1.961   2.006   2.065   2.083   2.094   2.102   2.132
 15 A2   25 B2   57 A1   16 A2   26 B2   58 A1   41 B1   42 B1                 
  2.179   2.193   2.206   2.243   2.287   2.302   2.324   2.328
 59 A1   60 A1   43 B1   27 B2   61 A1   44 B1   62 A1   28 B2                 
  2.385   2.439   2.448   2.464   2.532   2.538   2.542   2.590
 45 B1   17 A2   63 A1   29 B2   46 B1   30 B2   18 A2   64 A1                 
  2.626   2.629   2.668   2.712   2.731   2.768   2.769   2.815
 47 B1   19 A2   65 A1   66 A1   48 B1   49 B1   67 A1   31 B2                 
  2.821   2.834   2.904   2.944   2.945   2.977   2.993   3.004
 68 A1   32 B2   50 B1   20 A2   33 B2   51 B1   34 B2   69 A1                 
  3.010   3.028   3.041   3.044   3.058   3.107   3.133   3.149
 35 B2   70 A1   21 A2   52 B1   22 A2   71 A1   36 B2   72 A1                 
  3.159   3.214   3.220   3.257   3.259   3.309   3.321   3.339
 53 B1   37 B2   23 A2   38 B2   73 A1   54 B1   74 A1   55 B1                 
  3.342   3.366   3.373   3.378   3.409   3.423   3.426   3.428
 75 A1   24 A2   56 B1   76 A1   77 A1   78 A1   25 A2   57 B1                 
  3.430   3.440   3.444   3.456   3.479   3.534   3.580   3.613
 58 B1   79 A1   39 B2   26 A2   40 B2   59 B1   80 A1   41 B2                 
  3.620   3.637   3.652   3.663   3.674   3.681   3.717   3.727
 81 A1   27 A2   42 B2   60 B1   28 A2   61 B1   62 B1   43 B2                 
  3.747   3.785   3.866   3.913   3.947   3.957   3.970   3.979
 82 A1   29 A2   83 A1   84 A1   44 B2   63 B1   30 A2   85 A1                 
  4.070   4.090   4.093   4.114   4.117   4.120   4.135   4.142
 31 A2   45 B2   86 A1   64 B1   87 A1   65 B1   46 B2   32 A2                 
  4.152   4.172   4.188   4.193   4.227   4.295   4.359   4.363
 66 B1   47 B2   88 A1   33 A2   67 B1   89 A1   68 B1   48 B2                 
  4.404   4.427   4.446   4.480   4.488   4.489   4.503   4.526
 34 A2   90 A1   69 B1   91 A1   49 B2   70 B1   92 A1   71 B1                 
  4.573   4.608   4.647   4.653   4.655   4.668   4.669   4.691
 93 A1   35 A2   36 A2   50 B2   94 A1   72 B1   95 A1   51 B2                 
  4.696   4.779   4.781   4.878   4.989   5.023   5.039   5.052
 73 B1   96 A1   97 A1   74 B1   98 A1   52 B2   99 A1   53 B2                 
  5.056   5.094   5.101   5.129   5.209   5.235   5.302   5.338
 75 B1   76 B1   37 A2   38 A2  100 A1   54 B2   77 B1  101 A1                 
  5.365   5.373   5.438   5.484   5.514   5.579   5.717   5.901
 39 A2   78 B1  102 A1  103 A1   79 B1   80 B1   55 B2   81 B1                 
  5.907   5.999   6.074   6.265   6.288   6.410   6.453   6.743
104 A1  105 A1  106 A1   82 B1   83 B1   84 B1  107 A1  108 A1                 
  7.156   9.026  12.495  13.113  13.441  13.717  16.053
 85 B1  109 A1  110 A1   86 B1  111 A1   87 B1  112 A1                         

 Occupation and symmetry of molecular orbitals

 Point group: C2v (4 irreducible representations).

                           A1   A2   B1   B2    All 
 ----------------------------------------------------
 All molecular orbitals:
  - Alpha                  112  39   87   55    293 
  - Beta                   112  39   87   55    293 
 ----------------------------------------------------
 Alpha orbitals:
  - Frozen occupied        9    0    4    2     15  
  - Active occupied        10   2    7    4     23  
  - Active virtual         93   37   76   49    255 
  - Frozen virtual         0    0    0    0     0   
 ----------------------------------------------------
 Beta orbitals:
  - Frozen occupied        9    0    4    2     15  
  - Active occupied        10   2    7    4     23  
  - Active virtual         93   37   76   49    255 
  - Frozen virtual         0    0    0    0     0   
 ----------------------------------------------------

 Import integrals:   CPU 0.00 s  wall 0.00 s

 Import integrals:   CPU 972.46 s  wall 130.85 s

 MP2 amplitudes:   CPU 7.12 s  wall 5.91 s

Running a double precision version
           CCSD T amplitudes will be solved using DIIS.

           Start     Size      MaxIter   EConv     TConv     
           3         7         100       1.00e-06  1.00e-04  
 ------------------------------------------------------------------------------
           Energy (a.u.)   Ediff      Tdiff       Comment
 ------------------------------------------------------------------------------
         -2803.82844240                           
     1   -2803.81386731   1.46e-02   1.05e+00     
     2   -2803.84940181   3.55e-02   1.46e-01     
     3   -2803.84777792   1.62e-03   5.12e-02     
     4   -2803.85074579   2.97e-03   1.47e-02     Switched to DIIS steps.
     5   -2803.85165580   9.10e-04   1.11e-02     
     6   -2803.85168762   3.18e-05   2.07e-03     
     7   -2803.85167376   1.39e-05   1.04e-03     
     8   -2803.85167311   6.49e-07   2.05e-04     
     9   -2803.85167336   2.48e-07   7.53e-05     
 ------------------------------------------------------------------------------
         -2803.85167336                           CCSD T converged.

End of double precision
 SCF energy                 = -2802.65644351
 MP2 energy                 = -2803.82844240
 CCSD correlation energy     =    -1.19522985
 CCSD total energy           = -2803.85167336

 CCSD  T1^2 = 0.0079  T2^2 = 0.4297  Leading amplitudes:

 Amplitude    Orbitals with energies
 -0.0194       2 (A2) A                  ->    4 (A2) A                   
              -0.3520                          0.4545                     
 -0.0194       2 (A2) B                  ->    4 (A2) B                   
              -0.3520                          0.4545                     
 -0.0182       6 (B2) A                  ->    11 (B2) A                  
              -0.3330                          0.4755                     
 -0.0182       6 (B2) B                  ->    11 (B2) B                  
              -0.3330                          0.4755                     

 Amplitude    Orbitals with energies
 -0.0801       2 (A2) A      2 (A2) B    ->    3 (A2) A      3 (A2) B     
              -0.3520       -0.3520            0.1126        0.1126       
  0.0801       2 (A2) A      2 (A2) B    ->    3 (A2) B      3 (A2) A     
              -0.3520       -0.3520            0.1126        0.1126       
  0.0801       2 (A2) B      2 (A2) A    ->    3 (A2) A      3 (A2) B     
              -0.3520       -0.3520            0.1126        0.1126       
 -0.0801       2 (A2) B      2 (A2) A    ->    3 (A2) B      3 (A2) A     
              -0.3520       -0.3520            0.1126        0.1126       

 Computing CCSD intemediates for later calculations in double precision
 Finished.

Running a double precision version
           CCSD Lambda amplitudes will be solved using DIIS.
           Start     Size      MaxIter   EConv     LConv     
           3         7         100       1.00e-06  1.00e-04  
 ------------------------------------------------------------------------------
            Enorm      Ldiff       Comment
 ------------------------------------------------------------------------------
     1     6.31e-02   5.18e-02     
     2     1.18e-02   2.12e-04     
     3     4.03e-03   2.02e-03     
     4     1.61e-03   2.21e-04     Switched to DIIS steps.
     5     4.98e-04   3.12e-04     
     6     2.26e-04   7.05e-05     
     7     6.67e-05   2.33e-05     
     8     2.87e-05   3.99e-06     
     9     9.97e-06   6.84e-07     
    10     4.02e-06   1.76e-07     
    11     1.61e-06   1.38e-07     
    12     5.17e-07   9.57e-08     
 ------------------------------------------------------------------------------
                                   CCSD Lambda converged.

 CCSD calculation:   CPU 2787.28 s  wall 394.75 s

        Solving for EOMIP-CCSD A1 transitions.

Running a double precision version
      EOMIP-CCSD/MP2 right amplitudes will be solved using Davidson.
        Amplitudes will be solved using standard  algorithm.
     Hard-coded thresholds: 
     LinDepThresh=1.00e-15  NormThresh=1.00e-06  ReorthogonThresh=1.00e-02

      Roots     MaxVec    MaxIter   Precond   Conv      Shift    
      2         120       60        1         1.00e-05  0.00e+00  
 ------------------------------------------------------------------------------
      Iter ConvRoots NVecs ResNorm Current eigenvalues (eV)
 ------------------------------------------------------------------------------
      0    0      2     1.33e-01   15.2864   17.3809   
      1    0      4     5.57e-02   13.0161   15.0959   
      2    0      6     1.27e-03   12.3446   14.3399   
      3    0      8     1.75e-04   12.3206   14.3031   
      4    0      10    3.35e-05   12.3195   14.2991   
      5    1      12    8.69e-06   12.3185*  14.2968   
      6    2      13    4.29e-06   12.3185*  14.2962*  

     Davidson procedure converged

 EOMIP transition 1/A1
 Total energy = -2803.39897638 a.u.  Excitation energy = 12.3185 eV.
 R1^2 = 0.9286  R2^2 = 0.0714  Res^2 = 1.30e-06
 Conv-d = yes

 Amplitude    Transitions between orbitals
 -0.9565       19 (A1) A                 ->    infty        
 -0.1070       18 (A1) A                 ->    infty        
 -0.0356       15 (A1) A                 ->    infty        
 -0.0217       16 (A1) A                 ->    infty        

              Summary of significant orbitals:

               Number  Type             Irrep      Energy
               26      Occ  Alpha      15 (A1)     -0.8170
               27      Occ  Alpha      16 (A1)     -0.7103
               31      Occ  Alpha      18 (A1)     -0.5746
               34      Occ  Alpha      19 (A1)     -0.4927


 EOMIP transition 2/A1
 Total energy = -2803.32629616 a.u.  Excitation energy = 14.2962 eV.
 R1^2 = 0.9178  R2^2 = 0.0822  Res^2 = 7.27e-06
 Conv-d = yes

 Amplitude    Transitions between orbitals
 -0.9491       18 (A1) A                 ->    infty        
  0.1087       19 (A1) A                 ->    infty        
  0.0611       17 (A1) A                 ->    infty        
 -0.0268       14 (A1) A                 ->    infty        

              Summary of significant orbitals:

               Number  Type             Irrep      Energy
               24      Occ  Alpha      14 (A1)     -0.9737
               29      Occ  Alpha      17 (A1)     -0.6440
               31      Occ  Alpha      18 (A1)     -0.5746
               34      Occ  Alpha      19 (A1)     -0.4927


Running a double precision version
      EOMIP-CCSD/MP2 left amplitudes will be solved using Davidson.
        Amplitudes will be solved using MOM  algorithm.
     Hard-coded thresholds: 
     LinDepThresh=1.00e-15  NormThresh=1.00e-06  ReorthogonThresh=1.00e-02

      Roots     MaxVec    MaxIter   Precond   Conv      Shift    
      2         120       60        1         1.00e-05  0.00e+00  
 ------------------------------------------------------------------------------
      Iter ConvRoots NVecs ResNorm Current eigenvalues (eV)
 ------------------------------------------------------------------------------
      0    0      2     5.88e-03   12.3185   14.2962   
      1    0      4     2.19e-03   12.3185   14.2962   
      2    0      6     1.15e-04   12.3186   14.2963   
      3    1      8     1.00e-05   12.3186*  14.2963   
      4    2      9     4.29e-06   12.3186*  14.2963*  

     Davidson procedure converged

        Solving for EOMIP-CCSD A2 transitions.

Running a double precision version
      EOMIP-CCSD/MP2 right amplitudes will be solved using Davidson.
        Amplitudes will be solved using standard  algorithm.
     Hard-coded thresholds: 
     LinDepThresh=1.00e-15  NormThresh=1.00e-06  ReorthogonThresh=1.00e-02

      Roots     MaxVec    MaxIter   Precond   Conv      Shift    
      2         120       60        1         1.00e-05  0.00e+00  
 ------------------------------------------------------------------------------
      Iter ConvRoots NVecs ResNorm Current eigenvalues (eV)
 ------------------------------------------------------------------------------
      0    0      2     4.82e-01   11.8763   86.9914   
      1    0      4     4.90e-01   10.1411   58.9547   
      2    0      6     1.65e-01   9.6557   37.4759   
      3    0      8     6.50e-02   9.6347   27.9191   
      4    1      10    1.11e-02   9.6335*  22.8538   
      5    1      11    8.29e-03   9.6336*  20.9503   
      6    1      12    2.46e-03   9.6335*  20.2398   
      7    1      13    1.97e-03   9.6335*  19.9638   
      8    1      14    4.37e-03   9.6335*  19.5111   
      9    1      15    2.10e-03   9.6335*  19.0064   
      10   1      16    6.20e-04   9.6335*  18.8482   
      11   1      17    3.65e-04   9.6335*  18.7838   
      12   1      18    2.03e-04   9.6335*  18.7437   
      13   1      19    1.42e-04   9.6335*  18.7216   
      14   1      20    4.01e-04   9.6335*  18.6920   
      15   1      21    3.66e-03   9.6335*  18.4745   
      16   1      22    1.09e-03   9.6335*  18.1841   
      17   1      23    2.49e-04   9.6335*  18.1153   
      18   1      24    6.44e-05   9.6335*  18.0988   
      19   1      25    1.44e-05   9.6335*  18.0948   
      20   1      26    5.74e-06   9.6335*  18.0938   
      21   2      27    3.39e-06   9.6335*  18.0934*  

     Davidson procedure converged

 EOMIP transition 1/A2
 Total energy = -2803.49764745 a.u.  Excitation energy = 9.6335 eV.
 R1^2 = 0.9376  R2^2 = 0.0624  Res^2 = 1.29e-06
 Conv-d = yes

 Amplitude    Transitions between orbitals
 -0.9683       2 (A2) A                  ->    infty        

              Summary of significant orbitals:

               Number  Type             Irrep      Energy
               37      Occ  Alpha       2 (A2)     -0.3520


 EOMIP transition 2/A2
 Total energy = -2803.18675403 a.u.  Excitation energy = 18.0934 eV.
 R1^2 = 0.0000  R2^2 = 1.0000  Res^2 = 5.49e-06
 Conv-d = yes

 Amplitude    Transitions between orbitals
 -0.5473       2 (A2) A      6 (B2) A    ->    7 (B2) A     
  0.5473       6 (B2) A      2 (A2) A    ->    7 (B2) A     
  0.5462       2 (A2) A      6 (B2) B    ->    7 (B2) B     
 -0.5462       6 (B2) B      2 (A2) A    ->    7 (B2) B     
 -0.5452       6 (B2) A      2 (A2) B    ->    7 (B2) B     
  0.5452       2 (A2) B      6 (B2) A    ->    7 (B2) B     

              Summary of significant orbitals:

               Number  Type             Irrep      Energy
               37      Occ  Alpha       2 (A2)     -0.3520
               38      Occ  Alpha       6 (B2)     -0.3330
               37      Occ  Beta        2 (A2)     -0.3520
               38      Occ  Beta        6 (B2)     -0.3330
               39      Vir  Alpha       7 (B2)      0.1116
               39      Vir  Beta        7 (B2)      0.1116


Running a double precision version
      EOMIP-CCSD/MP2 left amplitudes will be solved using Davidson.
        Amplitudes will be solved using MOM  algorithm.
     Hard-coded thresholds: 
     LinDepThresh=1.00e-15  NormThresh=1.00e-06  ReorthogonThresh=1.00e-02

      Roots     MaxVec    MaxIter   Precond   Conv      Shift    
      2         120       60        1         1.00e-05  0.00e+00  
 ------------------------------------------------------------------------------
      Iter ConvRoots NVecs ResNorm Current eigenvalues (eV)
 ------------------------------------------------------------------------------
      0    0      2     1.61e-03   9.6335   18.0934   
Rerun orthogonalization...
      1    0      4     6.37e-04   9.6335   18.0933   
      2    1      6     3.28e-05   9.6335   18.0932*  
      3    2      7     3.36e-06   9.6335*  18.0932*  

     Davidson procedure converged

        Solving for EOMIP-CCSD B1 transitions.

Running a double precision version
      EOMIP-CCSD/MP2 right amplitudes will be solved using Davidson.
        Amplitudes will be solved using standard  algorithm.
     Hard-coded thresholds: 
     LinDepThresh=1.00e-15  NormThresh=1.00e-06  ReorthogonThresh=1.00e-02

      Roots     MaxVec    MaxIter   Precond   Conv      Shift    
      2         120       60        1         1.00e-05  0.00e+00  
 ------------------------------------------------------------------------------
      Iter ConvRoots NVecs ResNorm Current eigenvalues (eV)
 ------------------------------------------------------------------------------
      0    0      2     1.18e-01   12.8839   15.7450   
      1    0      4     5.43e-02   11.4032   13.2815   
      2    0      6     9.11e-04   10.6781   12.6442   
      3    0      8     8.59e-05   10.6618   12.6158   
      4    1      10    8.98e-06   10.6611*  12.6146   
      5    2      11    4.07e-06   10.6611*  12.6139*  

     Davidson procedure converged

 EOMIP transition 1/B1
 Total energy = -2803.45988402 a.u.  Excitation energy = 10.6611 eV.
 R1^2 = 0.9363  R2^2 = 0.0637  Res^2 = 7.18e-06
 Conv-d = yes

 Amplitude    Transitions between orbitals
 -0.9665       11 (B1) A                 ->    infty        
  0.0359       10 (B1) A                 ->    infty        
 -0.0262       8 (B1) A                  ->    infty        
  0.0131       7 (B1) A                  ->    infty        

              Summary of significant orbitals:

               Number  Type             Irrep      Energy
               25      Occ  Alpha       7 (B1)     -0.8453
               28      Occ  Alpha       8 (B1)     -0.6442
               33      Occ  Alpha      10 (B1)     -0.5148
               36      Occ  Alpha      11 (B1)     -0.4157


 EOMIP transition 2/B1
 Total energy = -2803.38812089 a.u.  Excitation energy = 12.6139 eV.
 R1^2 = 0.9245  R2^2 = 0.0755  Res^2 = 9.55e-07
 Conv-d = yes

 Amplitude    Transitions between orbitals
 -0.9601       10 (B1) A                 ->    infty        
 -0.0367       11 (B1) A                 ->    infty        
 -0.0338       7 (B1) A                  ->    infty        
  0.0117       9 (B1) A                  ->    infty        

              Summary of significant orbitals:

               Number  Type             Irrep      Energy
               25      Occ  Alpha       7 (B1)     -0.8453
               30      Occ  Alpha       9 (B1)     -0.6041
               33      Occ  Alpha      10 (B1)     -0.5148
               36      Occ  Alpha      11 (B1)     -0.4157


Running a double precision version
      EOMIP-CCSD/MP2 left amplitudes will be solved using Davidson.
        Amplitudes will be solved using MOM  algorithm.
     Hard-coded thresholds: 
     LinDepThresh=1.00e-15  NormThresh=1.00e-06  ReorthogonThresh=1.00e-02

      Roots     MaxVec    MaxIter   Precond   Conv      Shift    
      2         120       60        1         1.00e-05  0.00e+00  
 ------------------------------------------------------------------------------
      Iter ConvRoots NVecs ResNorm Current eigenvalues (eV)
 ------------------------------------------------------------------------------
      0    0      2     4.83e-03   10.6611   12.6139   
      1    0      4     1.81e-03   10.6608   12.6138   
      2    0      6     9.62e-05   10.6607   12.6139   
      3    1      8     1.32e-05   10.6606*  12.6139   
      4    2      9     3.19e-06   10.6606*  12.6139*  

     Davidson procedure converged

        Solving for EOMIP-CCSD B2 transitions.

Running a double precision version
      EOMIP-CCSD/MP2 right amplitudes will be solved using Davidson.
        Amplitudes will be solved using standard  algorithm.
     Hard-coded thresholds: 
     LinDepThresh=1.00e-15  NormThresh=1.00e-06  ReorthogonThresh=1.00e-02

      Roots     MaxVec    MaxIter   Precond   Conv      Shift    
      2         120       60        1         1.00e-05  0.00e+00  
 ------------------------------------------------------------------------------
      Iter ConvRoots NVecs ResNorm Current eigenvalues (eV)
 ------------------------------------------------------------------------------
      0    0      2     9.63e-02   11.2407   13.6791   
      1    0      4     4.76e-02   9.5775   12.0903   
      2    0      6     9.93e-04   9.0368   11.3959   
      3    0      8     1.36e-04   9.0196   11.3684   
      4    0      10    1.53e-05   9.0177   11.3639   
      5    2      12    1.96e-06   9.0175*  11.3632*  

     Davidson procedure converged

 EOMIP transition 1/B2
 Total energy = -2803.52028735 a.u.  Excitation energy = 9.0175 eV.
 R1^2 = 0.9396  R2^2 = 0.0604  Res^2 = 7.38e-07
 Conv-d = yes

 Amplitude    Transitions between orbitals
 -0.9671       6 (B2) A                  ->    infty        
 -0.0647       5 (B2) A                  ->    infty        
  0.0088       4 (B2) A                  ->    infty        
  0.0001       3 (B2) A                  ->    infty        

              Summary of significant orbitals:

               Number  Type             Irrep      Energy
               17      Occ  Alpha       3 (B2)     -3.1876
               32      Occ  Alpha       4 (B2)     -0.5332
               35      Occ  Alpha       5 (B2)     -0.4392
               38      Occ  Alpha       6 (B2)     -0.3330


 EOMIP transition 2/B2
 Total energy = -2803.43408519 a.u.  Excitation energy = 11.3632 eV.
 R1^2 = 0.9282  R2^2 = 0.0718  Res^2 = 3.18e-06
 Conv-d = yes

 Amplitude    Transitions between orbitals
 -0.9615       5 (B2) A                  ->    infty        
  0.0614       6 (B2) A                  ->    infty        
  0.0035       4 (B2) A                  ->    infty        
 -0.0002       3 (B2) A                  ->    infty        

              Summary of significant orbitals:

               Number  Type             Irrep      Energy
               17      Occ  Alpha       3 (B2)     -3.1876
               32      Occ  Alpha       4 (B2)     -0.5332
               35      Occ  Alpha       5 (B2)     -0.4392
               38      Occ  Alpha       6 (B2)     -0.3330


Running a double precision version
      EOMIP-CCSD/MP2 left amplitudes will be solved using Davidson.
        Amplitudes will be solved using MOM  algorithm.
     Hard-coded thresholds: 
     LinDepThresh=1.00e-15  NormThresh=1.00e-06  ReorthogonThresh=1.00e-02

      Roots     MaxVec    MaxIter   Precond   Conv      Shift    
      2         120       60        1         1.00e-05  0.00e+00  
 ------------------------------------------------------------------------------
      Iter ConvRoots NVecs ResNorm Current eigenvalues (eV)
 ------------------------------------------------------------------------------
      0    0      2     3.24e-03   9.0175   11.3632   
      1    0      4     1.54e-03   9.0175   11.3630   
      2    0      6     8.87e-05   9.0175   11.3630   
      3    1      8     5.12e-05   9.0175*  11.3630   
      4    1      9     1.77e-05   9.0175*  11.3630   
      5    2      10    3.69e-06   9.0175*  11.3630*  

     Davidson procedure converged

 EOMIP-CCSD calculation:   CPU 171.55 s  wall 33.28 s


 Start computing the transition properties

 ------------------------------------------------------------------------------
 State A: ccsd: 0/A1
 State B: eomip_ccsd/a: 1/A1
 Transition density matrix between ccsd and eomip_ccsd has not been implemented yet!


 ------------------------------------------------------------------------------
 contents of the context

/canmo/ao/dx_bb
/canmo/ao/dxx_bb
/canmo/ao/dy_bb
/canmo/ao/dyy_bb
/canmo/ao/dz_bb
/canmo/ao/dzz_bb
/canmo/ao/fa_bb
/canmo/ao/fb_bb
/canmo/ao/ke_bb
/canmo/ao/nucmm
/canmo/ao/s_bb
/canmo/aobasis/b1
/canmo/aobasis/bm
/canmo/aobasis/bsp
/canmo/aobasis/bx1
/canmo/aobasis/charges
/canmo/ccsd/energy
/canmo/ccsd/f2_oo
/canmo/ccsd/f2_ov
/canmo/ccsd/f2_vv
/canmo/ccsd/fz_oo
/canmo/ccsd/fz_vv
/canmo/ccsd/hd_o
/canmo/ccsd/hd_oov
/canmo/ccsd/i1_ovov
/canmo/ccsd/i2_ooov
/canmo/ccsd/i3_ovvv
/canmo/ccsd/i4_oooo
/canmo/ccsd/i5_vvvv
/canmo/ccsd/i6_ooov
/canmo/ccsd/i7_ovvv
/canmo/ccsd/l1
/canmo/ccsd/l2
/canmo/ccsd/t1
/canmo/ccsd/t2
/canmo/ccsd/t_converged
/canmo/ccsd/total_energy
/canmo/eomip_ccsd/a/1/1/energy
/canmo/eomip_ccsd/a/1/1/l0
/canmo/eomip_ccsd/a/1/1/l1
/canmo/eomip_ccsd/a/1/1/l2
/canmo/eomip_ccsd/a/1/1/left_root_conv
/canmo/eomip_ccsd/a/1/1/r1
/canmo/eomip_ccsd/a/1/1/r2
/canmo/eomip_ccsd/a/1/1/right_root_conv
/canmo/eomip_ccsd/a/1/1/rresnorm
/canmo/eomip_ccsd/a/1/1/total_energy
/canmo/eomip_ccsd/a/1/2/energy
/canmo/eomip_ccsd/a/1/2/l0
/canmo/eomip_ccsd/a/1/2/l1
/canmo/eomip_ccsd/a/1/2/l2
/canmo/eomip_ccsd/a/1/2/left_root_conv
/canmo/eomip_ccsd/a/1/2/r1
/canmo/eomip_ccsd/a/1/2/r2
/canmo/eomip_ccsd/a/1/2/right_root_conv
/canmo/eomip_ccsd/a/1/2/rresnorm
/canmo/eomip_ccsd/a/1/2/total_energy
/canmo/eomip_ccsd/a/1/guess/1/energy
/canmo/eomip_ccsd/a/1/guess/1/r1
/canmo/eomip_ccsd/a/1/guess/1/r2
/canmo/eomip_ccsd/a/1/guess/1/right_root_conv
/canmo/eomip_ccsd/a/1/guess/1/rresnorm
/canmo/eomip_ccsd/a/1/guess/1/total_energy
/canmo/eomip_ccsd/a/1/guess/2/energy
/canmo/eomip_ccsd/a/1/guess/2/r1
/canmo/eomip_ccsd/a/1/guess/2/r2
/canmo/eomip_ccsd/a/1/guess/2/right_root_conv
/canmo/eomip_ccsd/a/1/guess/2/rresnorm
/canmo/eomip_ccsd/a/1/guess/2/total_energy
/canmo/eomip_ccsd/a/1/guess/nstates
/canmo/eomip_ccsd/a/1/nstates
/canmo/eomip_ccsd/a/2/1/energy
/canmo/eomip_ccsd/a/2/1/l0
/canmo/eomip_ccsd/a/2/1/l1
/canmo/eomip_ccsd/a/2/1/l2
/canmo/eomip_ccsd/a/2/1/left_root_conv
/canmo/eomip_ccsd/a/2/1/r1
/canmo/eomip_ccsd/a/2/1/r2
/canmo/eomip_ccsd/a/2/1/right_root_conv
/canmo/eomip_ccsd/a/2/1/rresnorm
/canmo/eomip_ccsd/a/2/1/total_energy
/canmo/eomip_ccsd/a/2/2/energy
/canmo/eomip_ccsd/a/2/2/l0
/canmo/eomip_ccsd/a/2/2/l1
/canmo/eomip_ccsd/a/2/2/l2
/canmo/eomip_ccsd/a/2/2/left_root_conv
/canmo/eomip_ccsd/a/2/2/r1
/canmo/eomip_ccsd/a/2/2/r2
/canmo/eomip_ccsd/a/2/2/right_root_conv
/canmo/eomip_ccsd/a/2/2/rresnorm
/canmo/eomip_ccsd/a/2/2/total_energy
/canmo/eomip_ccsd/a/2/guess/1/energy
/canmo/eomip_ccsd/a/2/guess/1/r1
/canmo/eomip_ccsd/a/2/guess/1/r2
/canmo/eomip_ccsd/a/2/guess/1/right_root_conv
/canmo/eomip_ccsd/a/2/guess/1/rresnorm
/canmo/eomip_ccsd/a/2/guess/1/total_energy
/canmo/eomip_ccsd/a/2/guess/2/energy
/canmo/eomip_ccsd/a/2/guess/2/r1
/canmo/eomip_ccsd/a/2/guess/2/r2
/canmo/eomip_ccsd/a/2/guess/2/right_root_conv
/canmo/eomip_ccsd/a/2/guess/2/rresnorm
/canmo/eomip_ccsd/a/2/guess/2/total_energy
/canmo/eomip_ccsd/a/2/guess/nstates
/canmo/eomip_ccsd/a/2/nstates
/canmo/eomip_ccsd/a/3/1/energy
/canmo/eomip_ccsd/a/3/1/l0
/canmo/eomip_ccsd/a/3/1/l1
/canmo/eomip_ccsd/a/3/1/l2
/canmo/eomip_ccsd/a/3/1/left_root_conv
/canmo/eomip_ccsd/a/3/1/r1
/canmo/eomip_ccsd/a/3/1/r2
/canmo/eomip_ccsd/a/3/1/right_root_conv
/canmo/eomip_ccsd/a/3/1/rresnorm
/canmo/eomip_ccsd/a/3/1/total_energy
/canmo/eomip_ccsd/a/3/2/energy
/canmo/eomip_ccsd/a/3/2/l0
/canmo/eomip_ccsd/a/3/2/l1
/canmo/eomip_ccsd/a/3/2/l2
/canmo/eomip_ccsd/a/3/2/left_root_conv
/canmo/eomip_ccsd/a/3/2/r1
/canmo/eomip_ccsd/a/3/2/r2
/canmo/eomip_ccsd/a/3/2/right_root_conv
/canmo/eomip_ccsd/a/3/2/rresnorm
/canmo/eomip_ccsd/a/3/2/total_energy
/canmo/eomip_ccsd/a/3/guess/1/energy
/canmo/eomip_ccsd/a/3/guess/1/r1
/canmo/eomip_ccsd/a/3/guess/1/r2
/canmo/eomip_ccsd/a/3/guess/1/right_root_conv
/canmo/eomip_ccsd/a/3/guess/1/rresnorm
/canmo/eomip_ccsd/a/3/guess/1/total_energy
/canmo/eomip_ccsd/a/3/guess/2/energy
/canmo/eomip_ccsd/a/3/guess/2/r1
/canmo/eomip_ccsd/a/3/guess/2/r2
/canmo/eomip_ccsd/a/3/guess/2/right_root_conv
/canmo/eomip_ccsd/a/3/guess/2/rresnorm
/canmo/eomip_ccsd/a/3/guess/2/total_energy
/canmo/eomip_ccsd/a/3/guess/nstates
/canmo/eomip_ccsd/a/3/nstates
/canmo/eomip_ccsd/a/4/1/energy
/canmo/eomip_ccsd/a/4/1/l0
/canmo/eomip_ccsd/a/4/1/l1
/canmo/eomip_ccsd/a/4/1/l2
/canmo/eomip_ccsd/a/4/1/left_root_conv
/canmo/eomip_ccsd/a/4/1/r1
/canmo/eomip_ccsd/a/4/1/r2
/canmo/eomip_ccsd/a/4/1/right_root_conv
/canmo/eomip_ccsd/a/4/1/rresnorm
/canmo/eomip_ccsd/a/4/1/total_energy
/canmo/eomip_ccsd/a/4/2/energy
/canmo/eomip_ccsd/a/4/2/l0
/canmo/eomip_ccsd/a/4/2/l1
/canmo/eomip_ccsd/a/4/2/l2
/canmo/eomip_ccsd/a/4/2/left_root_conv
/canmo/eomip_ccsd/a/4/2/r1
/canmo/eomip_ccsd/a/4/2/r2
/canmo/eomip_ccsd/a/4/2/right_root_conv
/canmo/eomip_ccsd/a/4/2/rresnorm
/canmo/eomip_ccsd/a/4/2/total_energy
/canmo/eomip_ccsd/a/4/guess/1/energy
/canmo/eomip_ccsd/a/4/guess/1/r1
/canmo/eomip_ccsd/a/4/guess/1/r2
/canmo/eomip_ccsd/a/4/guess/1/right_root_conv
/canmo/eomip_ccsd/a/4/guess/1/rresnorm
/canmo/eomip_ccsd/a/4/guess/1/total_energy
/canmo/eomip_ccsd/a/4/guess/2/energy
/canmo/eomip_ccsd/a/4/guess/2/r1
/canmo/eomip_ccsd/a/4/guess/2/r2
/canmo/eomip_ccsd/a/4/guess/2/right_root_conv
/canmo/eomip_ccsd/a/4/guess/2/rresnorm
/canmo/eomip_ccsd/a/4/guess/2/total_energy
/canmo/eomip_ccsd/a/4/guess/nstates
/canmo/eomip_ccsd/a/4/nstates
/canmo/eomip_ccsd/a/nirreps
/canmo/hf/c_fb
/canmo/hf/c_o1b
/canmo/hf/c_o2b
/canmo/hf/c_v1b
/canmo/hf/ej
/canmo/hf/eka
/canmo/hf/ekb
/canmo/hf/energy
/canmo/hf/f_o1o1
/canmo/hf/f_o1o2
/canmo/hf/f_o1v1
/canmo/hf/f_o2o2
/canmo/hf/f_o2v1
/canmo/hf/f_v1v1
/canmo/hf/fd_o1
/canmo/hf/fd_o2
/canmo/hf/fd_v1
/canmo/hf/frozen_core_energy
/canmo/hf/i_o1o1o1o1
/canmo/hf/i_o1o1o1v1
/canmo/hf/i_o1o1v1v1
/canmo/hf/i_o1v1o1v1
/canmo/hf/i_o1v1v1v1
/canmo/hf/i_v1v1v1v1
/canmo/hf/ke_o1o1
/canmo/hf/ke_o1o2
/canmo/hf/ke_o1v1
/canmo/hf/ke_o2o2
/canmo/hf/ke_o2v1
/canmo/hf/ke_v1v1
/canmo/hf/kin_energy
/canmo/hf/nossa
/canmo/hf/nossb
/canmo/hf/nuc_attr_energy
/canmo/hf/nuc_energy
/canmo/hf/nvssa
/canmo/hf/nvssb
/canmo/hf/oe_f
/canmo/hf/oe_o1
/canmo/hf/oe_o2
/canmo/hf/oe_v1
/canmo/hf/oemap_f
/canmo/hf/omap_f
/canmo/hf/omap_o1
/canmo/hf/omap_o2
/canmo/hf/omap_v1
/canmo/hf/total_energy
/canmo/hf/unrestricted
/canmo/left_root_conv
/canmo/mp2/d_ov
/canmo/mp2/energy
/canmo/mp2/t1
/canmo/mp2/t2
/canmo/mp2/t_converged
/canmo/mp2/total_energy
/canmo/prop/dx_bb
/canmo/prop/dx_o1o1
/canmo/prop/dx_o1o2
/canmo/prop/dx_o1v1
/canmo/prop/dx_o2o2
/canmo/prop/dx_o2v1
/canmo/prop/dx_v1v1
/canmo/prop/dxx_bb
/canmo/prop/dxx_o1o1
/canmo/prop/dxx_o1o2
/canmo/prop/dxx_o1v1
/canmo/prop/dxx_o2o2
/canmo/prop/dxx_o2v1
/canmo/prop/dxx_v1v1
/canmo/prop/dy_bb
/canmo/prop/dy_o1o1
/canmo/prop/dy_o1o2
/canmo/prop/dy_o1v1
/canmo/prop/dy_o2o2
/canmo/prop/dy_o2v1
/canmo/prop/dy_v1v1
/canmo/prop/dyy_bb
/canmo/prop/dyy_o1o1
/canmo/prop/dyy_o1o2
/canmo/prop/dyy_o1v1
/canmo/prop/dyy_o2o2
/canmo/prop/dyy_o2v1
/canmo/prop/dyy_v1v1
/canmo/prop/dz_bb
/canmo/prop/dz_o1o1
/canmo/prop/dz_o1o2
/canmo/prop/dz_o1v1
/canmo/prop/dz_o2o2
/canmo/prop/dz_o2v1
/canmo/prop/dz_v1v1
/canmo/prop/dzz_bb
/canmo/prop/dzz_o1o1
/canmo/prop/dzz_o1o2
/canmo/prop/dzz_o1v1
/canmo/prop/dzz_o2o2
/canmo/prop/dzz_o2v1
/canmo/prop/dzz_v1v1
/canmo/prop/nucmm
/canmo/prop/vpc_bb
/canmo/right_root_conv
/canmo/spaces/b
/canmo/spaces/f
/canmo/spaces/o1
/canmo/spaces/o1_a
/canmo/spaces/o1_b
/canmo/spaces/o2
/canmo/spaces/o2_a
/canmo/spaces/o2_b
/canmo/spaces/s
/canmo/spaces/v1
/canmo/spaces/v1_a
/canmo/spaces/v1_b
/canmo/symmetry/ab_o1
/canmo/symmetry/ab_o2
/canmo/symmetry/ab_v1
/canmo/symmetry/ib_o1
/canmo/symmetry/ib_o2
/canmo/symmetry/ib_v1
/canmo/symmetry/irreps_f
/canmo/symmetry/pg/irreps
/canmo/symmetry/pg/name
/canmo_unsrt/hf/c_fb
/canmo_unsrt/hf/nossa
/canmo_unsrt/hf/nossb
/canmo_unsrt/hf/nvssa
/canmo_unsrt/hf/nvssb
/canmo_unsrt/hf/oe_f
/canmo_unsrt/hf/oemap_f
/canmo_unsrt/hf/omap_f
/canmo_unsrt/hf/unrestricted
/canmo_unsrt/spaces/b
/canmo_unsrt/spaces/f
/canmo_unsrt/spaces/s
/canmo_unsrt/symmetry/irreps_f
/canmo_unsrt/symmetry/pg/irreps
/canmo_unsrt/symmetry/pg/name
/qcimport/1/hf/c_fb
/qcimport/1/hf/oe_f
/qcimport/1/hf/omap_f
/qcimport/1/hf/unrestricted
/qcimport/1/spaces/b
/qcimport/1/spaces/f
/qcimport/1/spaces/s
/qcimport/1/symmetry/irreps_f
/qcimport/1/symmetry/pg/irreps
/qcimport/1/symmetry/pg/name
/qcimport/2/hf/c_fb
/qcimport/2/hf/nossa
/qcimport/2/hf/nossb
/qcimport/2/hf/nvssa
/qcimport/2/hf/nvssb
/qcimport/2/hf/oe_f
/qcimport/2/hf/omap_f
/qcimport/2/hf/unrestricted
/qcimport/2/spaces/b
/qcimport/2/spaces/f
/qcimport/2/spaces/s
/qcimport/2/symmetry/irreps_f
/qcimport/2/symmetry/pg/irreps
/qcimport/2/symmetry/pg/name
/qcimport/3/hf/c_fb
/qcimport/3/hf/nossa
/qcimport/3/hf/nossb
/qcimport/3/hf/nvssa
/qcimport/3/hf/nvssb
/qcimport/3/hf/oe_f
/qcimport/3/hf/oemap_f
/qcimport/3/hf/omap_f
/qcimport/3/hf/unrestricted
/qcimport/3/spaces/b
/qcimport/3/spaces/f
/qcimport/3/spaces/s
/qcimport/3/symmetry/irreps_f
/qcimport/3/symmetry/pg/irreps
/qcimport/3/symmetry/pg/name
/rawmo/ao/dx_bb
/rawmo/ao/dxx_bb
/rawmo/ao/dy_bb
/rawmo/ao/dyy_bb
/rawmo/ao/dz_bb
/rawmo/ao/dzz_bb
/rawmo/ao/fa_bb
/rawmo/ao/fb_bb
/rawmo/ao/ke_bb
/rawmo/ao/nucmm
/rawmo/ao/s_bb
/rawmo/hf/c_fb
/rawmo/hf/c_o1b
/rawmo/hf/c_o2b
/rawmo/hf/c_v1b
/rawmo/hf/ej
/rawmo/hf/eka
/rawmo/hf/ekb
/rawmo/hf/energy
/rawmo/hf/f_o1o1
/rawmo/hf/f_o1o2
/rawmo/hf/f_o1v1
/rawmo/hf/f_o2o2
/rawmo/hf/f_o2v1
/rawmo/hf/f_v1v1
/rawmo/hf/fd_o1
/rawmo/hf/fd_o2
/rawmo/hf/fd_v1
/rawmo/hf/frozen_core_energy
/rawmo/hf/ke_o1o1
/rawmo/hf/ke_o1o2
/rawmo/hf/ke_o1v1
/rawmo/hf/ke_o2o2
/rawmo/hf/ke_o2v1
/rawmo/hf/ke_v1v1
/rawmo/hf/kin_energy
/rawmo/hf/nossa
/rawmo/hf/nossb
/rawmo/hf/nuc_attr_energy
/rawmo/hf/nuc_energy
/rawmo/hf/nvssa
/rawmo/hf/nvssb
/rawmo/hf/oe_f
/rawmo/hf/oe_o1
/rawmo/hf/oe_o2
/rawmo/hf/oe_v1
/rawmo/hf/oemap_f
/rawmo/hf/omap_f
/rawmo/hf/omap_o1
/rawmo/hf/omap_o2
/rawmo/hf/omap_v1
/rawmo/hf/total_energy
/rawmo/hf/unrestricted
/rawmo/prop/dx_bb
/rawmo/prop/dx_o1o1
/rawmo/prop/dx_o1o2
/rawmo/prop/dx_o1v1
/rawmo/prop/dx_o2o2
/rawmo/prop/dx_o2v1
/rawmo/prop/dx_v1v1
/rawmo/prop/dxx_bb
/rawmo/prop/dxx_o1o1
/rawmo/prop/dxx_o1o2
/rawmo/prop/dxx_o1v1
/rawmo/prop/dxx_o2o2
/rawmo/prop/dxx_o2v1
/rawmo/prop/dxx_v1v1
/rawmo/prop/dy_bb
/rawmo/prop/dy_o1o1
/rawmo/prop/dy_o1o2
/rawmo/prop/dy_o1v1
/rawmo/prop/dy_o2o2
/rawmo/prop/dy_o2v1
/rawmo/prop/dy_v1v1
/rawmo/prop/dyy_bb
/rawmo/prop/dyy_o1o1
/rawmo/prop/dyy_o1o2
/rawmo/prop/dyy_o1v1
/rawmo/prop/dyy_o2o2
/rawmo/prop/dyy_o2v1
/rawmo/prop/dyy_v1v1
/rawmo/prop/dz_bb
/rawmo/prop/dz_o1o1
/rawmo/prop/dz_o1o2
/rawmo/prop/dz_o1v1
/rawmo/prop/dz_o2o2
/rawmo/prop/dz_o2v1
/rawmo/prop/dz_v1v1
/rawmo/prop/dzz_bb
/rawmo/prop/dzz_o1o1
/rawmo/prop/dzz_o1o2
/rawmo/prop/dzz_o1v1
/rawmo/prop/dzz_o2o2
/rawmo/prop/dzz_o2v1
/rawmo/prop/dzz_v1v1
/rawmo/prop/nucmm
/rawmo/prop/vpc_bb
/rawmo/spaces/b
/rawmo/spaces/f
/rawmo/spaces/o1
/rawmo/spaces/o1_a
/rawmo/spaces/o1_b
/rawmo/spaces/o2
/rawmo/spaces/o2_a
/rawmo/spaces/o2_b
/rawmo/spaces/s
/rawmo/spaces/v1
/rawmo/spaces/v1_a
/rawmo/spaces/v1_b
/rawmo/symmetry/ab_o1
/rawmo/symmetry/ab_o2
/rawmo/symmetry/ab_v1
/rawmo/symmetry/ib_o1
/rawmo/symmetry/ib_o2
/rawmo/symmetry/ib_v1
/rawmo/symmetry/irreps_f
/rawmo/symmetry/pg/irreps
/rawmo/symmetry/pg/name
 ------------------------------------------------------------------------------

