Q-Chem Developer Version!
                  Welcome to Q-Chem
     A Quantum Leap Into The Future Of Chemistry


 Q-Chem 5.1, Q-Chem, Inc., Pleasanton, CA (2018)

 Yihan Shao,  Zhengting Gan,  E. Epifanovsky,  A. T. B. Gilbert,  M. Wormit,  
 J. Kussmann,  A. W. Lange,  A. Behn,  Jia Deng,  Xintian Feng,  D. Ghosh,  
 M. Goldey,  P. R. Horn,  L. D. Jacobson,  I. Kaliman,  T. Kus,  A. Landau,  
 Jie Liu,  E. I. Proynov,  R. M. Richard,  R. P. Steele,  E. J. Sundstrom,  
 H. L. Woodcock III,  P. M. Zimmerman,  D. Zuev,  B. Albrecht,  E. Alguire,  
 S. A. Baeppler,  D. Barton,  Z. Benda,  Y. A. Bernard,  E. J. Berquist,  
 K. B. Bravaya,  H. Burton,  D. Casanova,  Chun-Min Chang,  Yunqing Chen,  
 A. Chien,  K. D. Closser,  M. P. Coons,  S. Coriani,  S. Dasgupta,  
 A. L. Dempwolff,  M. Diedenhofen,  Hainam Do,  R. G. Edgar,  Po-Tung Fang,  
 S. Faraji,  S. Fatehi,  Qingguo Feng,  K. D. Fenk,  J. Fosso-Tande,  
 Qinghui Ge,  A. Ghysels,  G. Gidofalvi,  J. Gomes,  J. Gonthier,  A. Gunina,  
 D. Hait,  M. W. D. Hanson-Heine,  P. H. P. Harbach,  A. W. Hauser,  
 J. E. Herr,  E. G. Hohenstein,  Z. C. Holden,  Kerwin Hui,  B. C. Huynh,  
 T.-C. Jagau,  Hyunjun Ji,  B. Kaduk,  K. Khistyaev,  Jaehoon Kim,  
 P. Klunzinger,  K. Koh,  D. Kosenkov,  L. Koulias,  T. Kowalczyk,  
 C. M. Krauter,  A. Kunitsa,  Ka Un Lao,  A. Laurent,  K. V. Lawler,  
 Joonho Lee,  D. Lefrancois,  S. Lehtola,  D. S. Levine,  Yi-Pei Li,  
 You-Sheng Lin,  Fenglai Liu,  E. Livshits,  A. Luenser,  P. Manohar,  
 E. Mansoor,  S. F. Manzer,  Shan-Ping Mao,  Yuezhi Mao,  N. Mardirossian,  
 A. V. Marenich,  T. Markovich,  L. A. Martinez-Martinez,  S. A. Maurer,  
 N. J. Mayhall,  S. C. McKenzie,  J.-M. Mewes,  A. F. Morrison,  
 J. W. Mullinax,  K. Nanda,  T. S. Nguyen-Beck,  R. Olivares-Amaya,  
 J. A. Parkhill,  T. M. Perrine,  F. Plasser,  P. Pokhilko,  S. Prager,  
 A. Prociuk,  E. Ramos,  D. R. Rehn,  F. Rob,  M. Schneider,  N. Sergueev,  
 S. M. Sharada,  S. Sharma,  D. W. Small,  T. Stauch,  T. Stein,  
 Yu-Chuan Su,  A. J. W. Thom,  A. Tkatchenko,  T. Tsuchimochi,  N. M. Tubman,  
 L. Vogt,  M. L. Vidal,  O. Vydrov,  M. A. Watson,  J. Wenzel,  
 M. de Wergifosse,  T. A. Wesolowski,  A. White,  J. Witte,  A. Yamada,  
 Jun Yang,  K. Yao,  S. Yeganeh,  S. R. Yost,  Zhi-Qiang You,  A. Zech,  
 Igor Ying Zhang,  Xing Zhang,  Yan Zhao,  Ying Zhu,  B. R. Brooks,  
 G. K. L. Chan,  C. J. Cramer,  M. S. Gordon,  W. J. Hehre,  A. Klamt,  
 M. W. Schmidt,  C. D. Sherrill,  D. G. Truhlar,  A. Aspuru-Guzik,  R. Baer,  
 A. T. Bell,  N. A. Besley,  Jeng-Da Chai,  A. E. DePrince, III,  
 R. A. DiStasio Jr.,  A. Dreuw,  B. D. Dunietz,  T. R. Furlani,  
 Chao-Ping Hsu,  Yousung Jung,  Jing Kong,  D. S. Lambrecht,  WanZhen Liang,  
 C. Ochsenfeld,  V. A. Rassolov,  L. V. Slipchenko,  J. E. Subotnik,  
 T. Van Voorhis,  J. M. Herbert,  A. I. Krylov,  P. M. W. Gill,  M. Head-Gordon

 Contributors to earlier versions of Q-Chem not listed above: 
 R. D. Adamson,  B. Austin,  J. Baker,  G. J. O. Beran,  K. Brandhorst,  
 S. T. Brown,  E. F. C. Byrd,  A. K. Chakraborty,  C.-L. Cheng,  
 Siu Hung Chien,  D. M. Chipman,  D. L. Crittenden,  H. Dachsel,  
 R. J. Doerksen,  A. D. Dutoi,  L. Fusti-Molnar,  W. A. Goddard III,  
 A. Golubeva-Zadorozhnaya,  S. R. Gwaltney,  G. Hawkins,  A. Heyden,  
 S. Hirata,  G. Kedziora,  F. J. Keil,  C. Kelley,  Jihan Kim,  R. A. King,  
 R. Z. Khaliullin,  P. P. Korambath,  W. Kurlancheek,  A. M. Lee,  M. S. Lee,  
 S. V. Levchenko,  Ching Yeh Lin,  D. Liotard,  R. C. Lochan,  I. Lotan,  
 P. E. Maslen,  N. Nair,  D. P. O'Neill,  D. Neuhauser,  E. Neuscamman,  
 C. M. Oana,  R. Olson,  B. Peters,  R. Peverati,  P. A. Pieniazek,  
 Y. M. Rhee,  J. Ritchie,  M. A. Rohrdanz,  E. Rosta,  N. J. Russ,  
 H. F. Schaefer III,  N. E. Schultz,  N. Shenvi,  A. C. Simmonett,  A. Sodt,  
 D. Stuck,  K. S. Thanthiriwatte,  V. Vanovschi,  Tao Wang,  A. Warshel,  
 C. F. Williams,  Q. Wu,  X. Xu,  W. Zhang

 Please cite Q-Chem as follows:
 Y. Shao et al., Mol. Phys. 113, 184-215 (2015)
 DOI: 10.1080/00268976.2014.952696

 Q-Chem 5.1.1 for Intel X86 EM64T Linux

 Parts of Q-Chem use Armadillo 8.300.2 (Tropical Shenanigans).
 http://arma.sourceforge.net/

 Q-Chem begins on Mon Oct 15 00:03:02 2018  

node24
Host: 0

     Scratch files written to /scratch/krylov/qchem7267//
Core orbitals will be frozen
Input Ideriv = 0
Curr. Ideriv = -1
Max.  Ideriv = 0

Checking the input file for inconsistencies... 	...done.

--------------------------------------------------------------
User input:
--------------------------------------------------------------
$comment
Optimized Br-Bz, XAS calculation at the neutral geom
6-311(2+,+), core uncontracted on C and Br (lowest s and lowest p)
$end

$molecule
0 1
H        -2.1434404908    0.0000000000    0.0671963029
C        -1.2132672529    0.0000000000   -0.4819994175
C        -1.2050294832    0.0000000000   -1.8750832747
H        -2.1443854307    0.0000000000   -2.4107048522
C         0.0000000000    0.0000000000   -2.5742906665
H         0.0000000000    0.0000000000   -3.6551007732
C         1.2050294832    0.0000000000   -1.8750832747
H         2.1443854307    0.0000000000   -2.4107048522
C         1.2132672529    0.0000000000   -0.4819994175
H         2.1434404908    0.0000000000    0.0671963029
C         0.0000000000    0.0000000000    0.2007961851
Br        0.0000000000    0.0000000000    2.0847967058
$end

$rem
   JOB_TYPE  =  SP
   BASIS  =  general
   METHOD  =  EOM-CCSD
   CVS_EE_STATES = [6,0,6,6]
   EOM_DAVIDSON_MAXVECTORS = 120
   CC_MEMORY = 80000
   cc_trans_prop = 1
   eom_shift = 06872    187 eV
$end

$basis
H    0
S    3    1.000000
   3.38650000E+01    2.54938000E-02 
   5.09479000E+00    1.90373000E-01 
   1.15879000E+00    8.52161000E-01 
S    1    1.000000
   3.25840000E-01    1.00000000E+00 
S    1    1.000000
   1.02741000E-01    1.00000000E+00 
S    1    1.000000
   3.60000000E-02    1.00000000E+00 
P    1    1.000000
   7.50000000E-01    1.00000000E+00 
****
C    0
S    1    1.000000
   4.56324000E+03    1.96665000E-03 
S    1    1.000000
   6.82024000E+02    1.52306000E-02
S    1    1.000000   
   1.54973000E+02    7.61269000E-02
S    1    1.000000   
   4.44553000E+01    2.60801000E-01 
S    1    1.000000
   1.30290000E+01    6.16462000E-01
S    1    1.000000   
   1.82773000E+00    2.21006000E-01 
SP   3    1.000000
   2.09642000E+01    1.14660000E-01   4.02487000E-02 
   4.80331000E+00    9.19999000E-01   2.37594000E-01 
   1.45933000E+00   -3.03068000E-03   8.15854000E-01 
SP   1    1.000000
   4.83456000E-01    1.00000000E+00   1.00000000E+00 
SP   1    1.000000
   1.45585000E-01    1.00000000E+00   1.00000000E+00 
SP   1    1.000000
   4.38000000E-02    1.00000000E+00   1.00000000E+00 
SP   1    1.000000
   1.31927711E-02    1.00000000E+00   1.00000000E+00 
D    1    1.000000
   6.26000000E-01    1.00000000E+00 
****
Br   0
S    1    1.000000
   4.39700000E+05    8.13000000E-04 
S    1    1.000000
   6.60300000E+04    6.28500000E-03
S    1    1.000000   
   1.51400000E+04    3.19200000E-02
S    1    1.000000   
   4.31700000E+03    1.28800000E-01
S    1    1.000000   
   1.41400000E+03    3.94600000E-01
S    1    1.000000   
   5.23900000E+02    5.41300000E-01 
S    3    1.000000
   5.23900000E+02    1.83100000E-01 
   2.07700000E+02    6.17600000E-01 
   8.65400000E+01    2.53800000E-01 
S    1    1.000000
   3.05200000E+01    1.00000000E+00 
S    1    1.000000
   1.29800000E+01    1.00000000E+00 
S    1    1.000000
   4.41200000E+00    1.00000000E+00 
S    1    1.000000
   1.86200000E+00    1.00000000E+00 
S    1    1.000000
   3.93200000E-01    1.00000000E+00 
S    1    1.000000
   1.40000000E-01    1.00000000E+00 
P    1    1.000000
   2.95700000E+03    2.22600000E-02 
P    1    1.000000
   7.00300000E+02    1.80200000E-01
P    1    1.000000   
   2.24600000E+02    8.62400000E-01 
P    3    1.000000
   8.25900000E+01    3.44000000E-01 
   3.31900000E+01    5.07100000E-01 
   1.42000000E+01    2.59000000E-01 
P    3    1.000000
   1.42000000E+01    7.96500000E-02 
   7.43800000E+00    3.73400000E-01 
   3.52600000E+00    6.04900000E-01 
P    1    1.000000
   1.59500000E+00    1.00000000E+00 
P    1    1.000000
   8.46200000E-01    1.00000000E+00 
P    1    1.000000
   3.18600000E-01    1.00000000E+00 
P    1    1.000000
   1.09600000E-01    1.00000000E+00 
D    4    1.000000
   1.34800000E+02    1.83100000E-02 
   3.63900000E+01    1.35000000E-01 
   1.21600000E+01    4.26100000E-01 
   4.34100000E+00    6.04300000E-01 
D    1    1.000000
   1.53500000E+00    1.00000000E+00 
SP   1    1.000000
   3.90000000E-02    1.00000000E+00   1.00000000E+00 
SP   1    1.000000
   1.17469880E-02    1.00000000E+00   1.00000000E+00 
D    1    1.000000
   4.15000000E-01    1.00000000E+00 
****
$end
--------------------------------------------------------------
 ----------------------------------------------------------------
             Standard Nuclear Orientation (Angstroms)
    I     Atom           X                Y                Z
 ----------------------------------------------------------------
    1      H      -2.1434404908     0.0000000000    -0.2235906397
    2      C      -1.2132672529    -0.0000000000    -0.7727863601
    3      C      -1.2050294832    -0.0000000000    -2.1658702173
    4      H      -2.1443854307    -0.0000000000    -2.7014917948
    5      C       0.0000000000    -0.0000000000    -2.8650776091
    6      H       0.0000000000    -0.0000000000    -3.9458877158
    7      C       1.2050294832    -0.0000000000    -2.1658702173
    8      H       2.1443854307    -0.0000000000    -2.7014917948
    9      C       1.2132672529    -0.0000000000    -0.7727863601
   10      H       2.1434404908    -0.0000000000    -0.2235906397
   11      C       0.0000000000    -0.0000000000    -0.0899907575
   12      Br     -0.0000000000     0.0000000000     1.7940097632
 ----------------------------------------------------------------
 Molecular Point Group                 C2v   NOp =  4
 Largest Abelian Subgroup              C2v   NOp =  4
 Nuclear Repulsion Energy =   432.5066877038 hartrees
 There are       38 alpha and       38 beta electrons

 Q-Chem warning in module forms1/BasisType.C, line 1703:

 Setting pure/cartesian flag to 2111 for general basis


 Requested basis set is non-standard
 There are 124 shells and 284 basis functions
MEM_TOTAL is adjusted to CC_MEMORY + MEM_STATIC!
 Total memory of 80192MB is distributed as follows: 
   QALLOC including MEM_STATIC uses 192MB
   MEM_STATIC is set to 192MB
   CCMAN JOB total memory use is  80000MB
 Warning: actual memory use might exceed 80192MB

 Total QAlloc Memory Limit    192 MB
 Mega-Array Size       188 MB
 MEM_STATIC part       192 MB

                       Distance Matrix (Angstroms)
             H (  1)   C (  2)   C (  3)   H (  4)   C (  5)   H (  6)
   C (  2)  1.080203
   C (  3)  2.157096  1.393108
   H (  4)  2.477901  2.141702  1.081333
   C (  5)  3.401733  2.418615  1.393193  2.150616
   H (  6)  4.295327  3.397144  2.149548  2.479296  1.080810
   C (  7)  3.871008  2.790850  2.410059  3.391972  1.393193  2.149548
   H (  8)  4.952317  3.872175  3.391972  4.288771  2.150616  2.479296
   C (  9)  3.401338  2.426535  2.790850  3.872175  2.418615  3.397144
   H ( 10)  4.286881  3.401338  3.871008  4.952317  3.401733  4.295327
   C ( 11)  2.147600  1.392202  2.400286  3.379101  2.775087  3.855897
   Br( 12)  2.943645  2.839095  4.139172  4.980755  4.659087  5.739897
             C (  7)   H (  8)   C (  9)   H ( 10)   C ( 11)
   H (  8)  1.081333
   C (  9)  1.393108  2.141702
   H ( 10)  2.157096  2.477901  1.080203
   C ( 11)  2.400286  3.379101  1.392202  2.147600
   Br( 12)  4.139172  4.980755  2.839095  2.943645  1.884001

 A cutoff of  1.0D-14 yielded   6232 shell pairs
 There are     37168 function pairs (     39627 Cartesian)

 -------------------------------------------------------
 OpenMP Integral Computing Module                       
 Release: version 1.0, May 2013, Q-Chem Inc. Pittsburgh 
 -------------------------------------------------------
 Integral Job Info:
 Integral job number is                      11
 Integral operator is                         1
 short-range coefficients                     0
 long-range coefficients              100000000
 Omega coefficients                           0
 if combine SR and LR in K                    0
 Integral screening is                        0
 Integral computing path is                   2
 max size of driver memory is            800000
 size of driver memory is                593474
 size of scratch memory is             29535480
 max col of scratch BK array               1296
 max len of scratch array in speh3          155
 max len of scratch index in speh4           18
 max int batch size is                      520
 min int batch size is                       52
 fixed nKL is                                46
 max L of basis functions is                  2
 order of int derivative is                   0
 number of shells is                        124
 number of basis is                         293
 number of cartesian basis is               293
 number of contracted shell pairs          6232
 number of primitive shell pairs           8639
 maxK2 (contraction) of shell pair           16
 max number of K2 of shell pair               1
 max number of CS2 of shell pair           1723
 max number of PS2 of shell pair           1723
 mem total for path MDJ                  548620
 -------------------------------------------------------
 Smallest overlap matrix eigenvalue = 9.84E-09
 Linear dependence detected in AO basis
 Tighter screening thresholds may be required for diffuse basis sets
 Use S2THRESH > 14 and THRESH = 14 in case of SCF convergence issues
 Number of orthogonalized atomic orbitals = 277
 Maximum deviation from orthogonality = 5.333E-11

 Scale SEOQF with 1.000000e-01/1.000000e-01/1.000000e-01

 Standard Electronic Orientation quadrupole field applied
 Nucleus-field energy     =    -0.0000000255 hartrees
 Guess MOs from core Hamiltonian diagonalization

 -----------------------------------------------------------------------
  General SCF calculation program by
  Eric Jon Sundstrom, Paul Horn, Yuezhi Mao, Dmitri Zuev, Alec White,
  David Stuck, Shaama M.S., Shane Yost, Joonho Lee, David Small,
  Daniel Levine, Susi Lehtola, Hugh Burton, Evgeny Epifanovsky
 -----------------------------------------------------------------------
 Hartree-Fock
 using 8 threads for integral computing
 -------------------------------------------------------
 OpenMP Integral computing Module                
 Release: version 2.0, May 2017, Q-Chem Inc. Pleasanton 
 -------------------------------------------------------
 A restricted SCF calculation will be
 performed using DIIS
 SCF converges when DIIS error is below 1.0e-08
 ---------------------------------------
  Cycle       Energy         DIIS error
 ---------------------------------------
    1   -2380.3561895426      5.55e-01  
    2   -2189.7267579917      1.71e-01  
    3   -2231.8371165321      1.66e-01  
    4   -2744.2180238706      6.90e-02  
    5   -2754.2591476616      4.71e-02  
    6   -2780.7222438206      4.20e-02  
    7   -2798.2816909519      1.76e-02  
    8   -2799.4564103067      1.30e-02  
    9   -2802.4828207418      2.31e-03  
   10   -2802.5364052620      8.03e-04  
   11   -2802.5444956637      2.92e-04  
   12   -2802.5462732816      9.54e-05  
   13   -2802.5465476378      4.98e-05  
   14   -2802.5466653797      2.51e-05  
   15   -2802.5466915238      9.37e-06  
   16   -2802.5466956812      2.67e-06  
   17   -2802.5466958494      1.17e-06  
   18   -2802.5466958930      2.71e-07  
   19   -2802.5466958988      7.51e-08  
   20   -2802.5466959375      1.36e-08  
   21   -2802.5466959461      3.78e-09  Convergence criterion met
 ---------------------------------------
 SCF time:   CPU 171.53s  wall 23.00s 
 SCF   energy in the final basis set =    -2802.5466959461
 Total energy in the final basis set =    -2802.5466959461


 ------------------------------------------------------------------------------

   CCMAN2: suite of methods based on coupled cluster
           and equation of motion theories.

   Components:
   * libvmm-1.3-trunk
     by Evgeny Epifanovsky, Ilya Kaliman.
   * libtensor-2.5-trunk
     by Evgeny Epifanovsky, Michael Wormit, Dmitry Zuev, Sam Manzer, 
        Ilya Kaliman.
   * libcc-2.5-trunk
     by Evgeny Epifanovsky, Arik Landau, Tomasz Kus, Kirill Khistyaev, 
        Dmitry Zuev, Prashant Manohar, Xintian Feng, Anna Krylov, 
        Matthew Goldey, Alec White, Thomas Jagau, Kaushik Nanda, 
        Anastasia Gunina, Alexander Kunitsa, Joonho Lee.

   CCMAN original authors:
   Anna I. Krylov, C. David Sherrill, Steven R. Gwaltney,
   Edward F. C. Byrd (2000)
   Sergey V. Levchenko, Lyudmila V. Slipchenko, Tao Wang,
   Ana-Maria C. Cristian (2003)
   Piotr A. Pieniazek, C. Melania Oana, Evgeny Epifanovsky (2007)
   Prashant Manohar (2009)

 ------------------------------------------------------------------------------


 Allocating and initializing 80000MB of RAM...
 Calculation will run on 8 cores.


 Alpha MOs, Restricted
 -- Occupied --                  
-490.03  -65.16  -58.52  -58.52  -58.52  -11.30  -11.26  -11.26
  1 A1    2 A1    3 A1    1 B2    1 B1    4 A1    2 B1    5 A1                 
-11.254 -11.254 -11.251  -9.841  -7.454  -7.445  -7.445  -3.193
  6 A1    3 B1    7 A1    8 A1    9 A1    4 B1    2 B2   10 A1                 
 -3.189  -3.189  -3.179  -3.179  -1.180  -1.076  -1.036  -0.977
  3 B2    5 B1   11 A1    1 A2   12 A1   13 A1    6 B1   14 A1                 
 -0.849  -0.820  -0.714  -0.648  -0.647  -0.608  -0.578  -0.535
  7 B1   15 A1   16 A1    8 B1   17 A1    9 B1   18 A1    4 B2                 
 -0.518  -0.496  -0.440  -0.417  -0.354  -0.335
 10 B1   19 A1    5 B2   11 B1    2 A2    6 B2                                 
 -- Virtual --                   
  0.013   0.020   0.020   0.026   0.029   0.030   0.037   0.040
 20 A1   12 B1   21 A1    7 B2   13 B1   22 A1   23 A1    8 B2                 
  0.043   0.047   0.048   0.054   0.055   0.059   0.063   0.065
  3 A2   14 B1   24 A1    9 B2    4 A2   25 A1   15 B1   26 A1                 
  0.067   0.067   0.069   0.069   0.076   0.082   0.087   0.091
 16 B1   10 B2   27 A1   11 B2   17 B1   28 A1   29 A1   18 B1                 
  0.100   0.101   0.101   0.119   0.123   0.140   0.156   0.165
 12 B2    5 A2   30 A1   19 B1   31 A1   32 A1   13 B2   20 B1                 
  0.174   0.177   0.179   0.196   0.198   0.203   0.207   0.214
 14 B2   33 A1    6 A2   34 A1   21 B1   35 A1   15 B2   36 A1                 
  0.223   0.225   0.229   0.229   0.231   0.241   0.245   0.247
 22 B1   16 B2   37 A1   23 B1    7 A2   38 A1   17 B2   24 B1                 
  0.252   0.254   0.263   0.278   0.289   0.293   0.314   0.337
 39 A1   25 B1   40 A1   41 A1   26 B1   27 B1   42 A1   28 B1                 
  0.342   0.353   0.377   0.413   0.416   0.433   0.442   0.487
 43 A1   18 B2   44 A1   45 A1   29 B1   30 B1   46 A1   47 A1                 
  0.494   0.511   0.512   0.606   0.615   0.619   0.645   0.647
 31 B1   32 B1   48 A1   49 A1   33 B1   19 B2   34 B1   50 A1                 
  0.716   0.729   0.736   0.737   0.741   0.747   0.766   0.774
 51 A1   35 B1   20 B2   36 B1   52 A1   21 B2    8 A2   53 A1                 
  0.787   0.787   0.805   0.824   0.829   0.866   0.888   0.897
  9 A2   37 B1   22 B2   54 A1   10 A2   23 B2   55 A1   56 A1                 
  0.924   0.925   0.935   0.939   0.960   0.985   1.012   1.031
 38 B1   24 B2   57 A1   39 B1   58 A1   59 A1   40 B1   60 A1                 
  1.059   1.069   1.097   1.098   1.112   1.126   1.177   1.203
 41 B1   61 A1   42 B1   62 A1   63 A1   43 B1   44 B1   25 B2                 
  1.203   1.231   1.286   1.293   1.308   1.345   1.374   1.472
 64 A1   11 A2   65 A1   45 B1   12 A2   26 B2   13 A2   66 A1                 
  1.526   1.614   1.725   1.776   1.785   1.817   1.823   1.831
 27 B2   67 A1   46 B1   68 A1   47 B1   69 A1   28 B2   14 A2                 
  1.881   1.905   1.907   1.947   1.990   2.006   2.042   2.102
 29 B2   70 A1   48 B1   71 A1   49 B1   30 B2   15 A2   50 B1                 
  2.147   2.217   2.218   2.219   2.235   2.248   2.272   2.320
 72 A1   51 B1   31 B2   16 A2   52 B1   73 A1   32 B2   74 A1                 
  2.345   2.352   2.366   2.375   2.443   2.594   2.614   2.645
 75 A1   53 B1   17 A2   33 B2   54 B1   34 B2   76 A1   18 A2                 
  2.676   2.742   2.796   2.796   2.849   2.929   2.972   2.991
 55 B1   77 A1   78 A1   56 B1   57 B1   79 A1   80 A1   81 A1                 
  3.009   3.022   3.031   3.039   3.069   3.161   3.186   3.193
 58 B1   82 A1   83 A1   59 B1   35 B2   84 A1   36 B2   60 B1                 
  3.193   3.280   3.286   3.319   3.472   3.530   3.563   3.756
 19 A2   37 B2   20 A2   61 B1   38 B2   85 A1   62 B1   63 B1                 
  3.780   3.899   3.921   4.018   4.139   4.383   4.438   4.501
 86 A1   64 B1   87 A1   88 A1   89 A1   65 B1   90 A1   91 A1                 
  4.515   4.558   4.609   4.638   4.789   4.960   5.114   5.261
 66 B1   21 A2   92 A1   39 B2   67 B1   93 A1   94 A1   68 B1                 
  5.439   5.446   5.759   5.778   6.183   7.389   8.253   8.346
 95 A1   69 B1   96 A1   70 B1   97 A1   98 A1   40 B2   71 B1                 
  8.445  20.615  20.685  20.706  20.824  20.851  21.124  49.058
 99 A1  100 A1  101 A1   72 B1  102 A1   73 B1  103 A1  104 A1                 
 80.185  80.258  80.280  80.379  80.404  80.610 241.920 242.011
105 A1  106 A1   74 B1  107 A1   75 B1  108 A1   41 B2   76 B1                 
242.125 322.027 322.095 322.116 322.200 322.221 322.388 485.333
109 A1  110 A1  111 A1   77 B1  112 A1   78 B1  113 A1  114 A1                 
*******1431.6581431.6781431.7481431.7671431.9061562.9251562.997
115 A1  116 A1   79 B1  117 A1   80 B1  118 A1   42 B2   81 B1                 
*******2536.8067647.8027647.8517647.9148749.8358749.8908749.907
119 A1  120 A1   43 B2   82 B1  121 A1  122 A1  123 A1   83 B1                 
*******8749.9808750.0919510.965************************
124 A1   84 B1  125 A1  126 A1  127 A1  128 A1  129 A1                         

 Beta MOs, Restricted
 -- Occupied --                  
-490.03  -65.16  -58.52  -58.52  -58.52  -11.30  -11.26  -11.26
  1 A1    2 A1    3 A1    1 B2    1 B1    4 A1    2 B1    5 A1                 
-11.254 -11.254 -11.251  -9.841  -7.454  -7.445  -7.445  -3.193
  6 A1    3 B1    7 A1    8 A1    9 A1    4 B1    2 B2   10 A1                 
 -3.189  -3.189  -3.179  -3.179  -1.180  -1.076  -1.036  -0.977
  3 B2    5 B1   11 A1    1 A2   12 A1   13 A1    6 B1   14 A1                 
 -0.849  -0.820  -0.714  -0.648  -0.647  -0.608  -0.578  -0.535
  7 B1   15 A1   16 A1    8 B1   17 A1    9 B1   18 A1    4 B2                 
 -0.518  -0.496  -0.440  -0.417  -0.354  -0.335
 10 B1   19 A1    5 B2   11 B1    2 A2    6 B2                                 
 -- Virtual --                   
  0.013   0.020   0.020   0.026   0.029   0.030   0.037   0.040
 20 A1   12 B1   21 A1    7 B2   13 B1   22 A1   23 A1    8 B2                 
  0.043   0.047   0.048   0.054   0.055   0.059   0.063   0.065
  3 A2   14 B1   24 A1    9 B2    4 A2   25 A1   15 B1   26 A1                 
  0.067   0.067   0.069   0.069   0.076   0.082   0.087   0.091
 16 B1   10 B2   27 A1   11 B2   17 B1   28 A1   29 A1   18 B1                 
  0.100   0.101   0.101   0.119   0.123   0.140   0.156   0.165
 12 B2    5 A2   30 A1   19 B1   31 A1   32 A1   13 B2   20 B1                 
  0.174   0.177   0.179   0.196   0.198   0.203   0.207   0.214
 14 B2   33 A1    6 A2   34 A1   21 B1   35 A1   15 B2   36 A1                 
  0.223   0.225   0.229   0.229   0.231   0.241   0.245   0.247
 22 B1   16 B2   37 A1   23 B1    7 A2   38 A1   17 B2   24 B1                 
  0.252   0.254   0.263   0.278   0.289   0.293   0.314   0.337
 39 A1   25 B1   40 A1   41 A1   26 B1   27 B1   42 A1   28 B1                 
  0.342   0.353   0.377   0.413   0.416   0.433   0.442   0.487
 43 A1   18 B2   44 A1   45 A1   29 B1   30 B1   46 A1   47 A1                 
  0.494   0.511   0.512   0.606   0.615   0.619   0.645   0.647
 31 B1   32 B1   48 A1   49 A1   33 B1   19 B2   34 B1   50 A1                 
  0.716   0.729   0.736   0.737   0.741   0.747   0.766   0.774
 51 A1   35 B1   20 B2   36 B1   52 A1   21 B2    8 A2   53 A1                 
  0.787   0.787   0.805   0.824   0.829   0.866   0.888   0.897
  9 A2   37 B1   22 B2   54 A1   10 A2   23 B2   55 A1   56 A1                 
  0.924   0.925   0.935   0.939   0.960   0.985   1.012   1.031
 38 B1   24 B2   57 A1   39 B1   58 A1   59 A1   40 B1   60 A1                 
  1.059   1.069   1.097   1.098   1.112   1.126   1.177   1.203
 41 B1   61 A1   42 B1   62 A1   63 A1   43 B1   44 B1   25 B2                 
  1.203   1.231   1.286   1.293   1.308   1.345   1.374   1.472
 64 A1   11 A2   65 A1   45 B1   12 A2   26 B2   13 A2   66 A1                 
  1.526   1.614   1.725   1.776   1.785   1.817   1.823   1.831
 27 B2   67 A1   46 B1   68 A1   47 B1   69 A1   28 B2   14 A2                 
  1.881   1.905   1.907   1.947   1.990   2.006   2.042   2.102
 29 B2   70 A1   48 B1   71 A1   49 B1   30 B2   15 A2   50 B1                 
  2.147   2.217   2.218   2.219   2.235   2.248   2.272   2.320
 72 A1   51 B1   31 B2   16 A2   52 B1   73 A1   32 B2   74 A1                 
  2.345   2.352   2.366   2.375   2.443   2.594   2.614   2.645
 75 A1   53 B1   17 A2   33 B2   54 B1   34 B2   76 A1   18 A2                 
  2.676   2.742   2.796   2.796   2.849   2.929   2.972   2.991
 55 B1   77 A1   78 A1   56 B1   57 B1   79 A1   80 A1   81 A1                 
  3.009   3.022   3.031   3.039   3.069   3.161   3.186   3.193
 58 B1   82 A1   83 A1   59 B1   35 B2   84 A1   36 B2   60 B1                 
  3.193   3.280   3.286   3.319   3.472   3.530   3.563   3.756
 19 A2   37 B2   20 A2   61 B1   38 B2   85 A1   62 B1   63 B1                 
  3.780   3.899   3.921   4.018   4.139   4.383   4.438   4.501
 86 A1   64 B1   87 A1   88 A1   89 A1   65 B1   90 A1   91 A1                 
  4.515   4.558   4.609   4.638   4.789   4.960   5.114   5.261
 66 B1   21 A2   92 A1   39 B2   67 B1   93 A1   94 A1   68 B1                 
  5.439   5.446   5.759   5.778   6.183   7.389   8.253   8.346
 95 A1   69 B1   96 A1   70 B1   97 A1   98 A1   40 B2   71 B1                 
  8.445  20.615  20.685  20.706  20.824  20.851  21.124  49.058
 99 A1  100 A1  101 A1   72 B1  102 A1   73 B1  103 A1  104 A1                 
 80.185  80.258  80.280  80.379  80.404  80.610 241.920 242.011
105 A1  106 A1   74 B1  107 A1   75 B1  108 A1   41 B2   76 B1                 
242.125 322.027 322.095 322.116 322.200 322.221 322.388 485.333
109 A1  110 A1  111 A1   77 B1  112 A1   78 B1  113 A1  114 A1                 
*******1431.6581431.6781431.7481431.7671431.9061562.9251562.997
115 A1  116 A1   79 B1  117 A1   80 B1  118 A1   42 B2   81 B1                 
*******2536.8067647.8027647.8517647.9148749.8358749.8908749.907
119 A1  120 A1   43 B2   82 B1  121 A1  122 A1  123 A1   83 B1                 
*******8749.9808750.0919510.965************************
124 A1   84 B1  125 A1  126 A1  127 A1  128 A1  129 A1                         

 Occupation and symmetry of molecular orbitals

 Point group: C2v (4 irreducible representations).

                           A1   A2   B1   B2    All 
 ----------------------------------------------------
 All molecular orbitals:
  - Alpha                  129  21   84   43    277 
  - Beta                   129  21   84   43    277 
 ----------------------------------------------------
 Alpha orbitals:
  - Frozen occupied        9    0    4    2     15  
  - Active occupied        10   2    7    4     23  
  - Active virtual         110  19   73   37    239 
  - Frozen virtual         0    0    0    0     0   
 ----------------------------------------------------
 Beta orbitals:
  - Frozen occupied        9    0    4    2     15  
  - Active occupied        10   2    7    4     23  
  - Active virtual         110  19   73   37    239 
  - Frozen virtual         0    0    0    0     0   
 ----------------------------------------------------

 Import integrals:   CPU 0.00 s  wall 0.00 s

 Import integrals:   CPU 865.21 s  wall 128.01 s

 MP2 amplitudes:   CPU 6.34 s  wall 5.19 s

Running a double precision version
           CCSD T amplitudes will be solved using DIIS.

           Start     Size      MaxIter   EConv     TConv     
           3         7         100       1.00e-06  1.00e-04  
 ------------------------------------------------------------------------------
           Energy (a.u.)   Ediff      Tdiff       Comment
 ------------------------------------------------------------------------------
         -2803.65840747                           
     1   -2803.64184451   1.66e-02   1.01e+00     
     2   -2803.67527733   3.34e-02   1.39e-01     
     3   -2803.67487911   3.98e-04   4.83e-02     
     4   -2803.67783607   2.96e-03   1.42e-02     Switched to DIIS steps.
     5   -2803.67884791   1.01e-03   1.19e-02     
     6   -2803.67887050   2.26e-05   2.18e-03     
     7   -2803.67885876   1.17e-05   1.05e-03     
     8   -2803.67885910   3.33e-07   2.05e-04     
     9   -2803.67885908   1.27e-08   7.72e-05     
 ------------------------------------------------------------------------------
         -2803.67885908                           CCSD T converged.

End of double precision
 SCF energy                 = -2802.54669595
 MP2 energy                 = -2803.65840747
 CCSD correlation energy     =    -1.13216314
 CCSD total energy           = -2803.67885908

 CCSD  T1^2 = 0.0083  T2^2 = 0.4081  Leading amplitudes:

 Amplitude    Orbitals with energies
  0.0179       2 (A2) A                  ->    8 (A2) A                   
              -0.3538                          0.7661                     
  0.0179       2 (A2) B                  ->    8 (A2) B                   
              -0.3538                          0.7661                     
 -0.0131       4 (B2) A                  ->    21 (B2) A                  
              -0.5346                          0.7475                     
 -0.0131       4 (B2) B                  ->    21 (B2) B                  
              -0.5346                          0.7475                     

 Amplitude    Orbitals with energies
 -0.0688       2 (A2) A      2 (A2) B    ->    5 (A2) A      5 (A2) B     
              -0.3538       -0.3538            0.1009        0.1009       
  0.0688       2 (A2) A      2 (A2) B    ->    5 (A2) B      5 (A2) A     
              -0.3538       -0.3538            0.1009        0.1009       
  0.0688       2 (A2) B      2 (A2) A    ->    5 (A2) A      5 (A2) B     
              -0.3538       -0.3538            0.1009        0.1009       
 -0.0688       2 (A2) B      2 (A2) A    ->    5 (A2) B      5 (A2) A     
              -0.3538       -0.3538            0.1009        0.1009       

 Computing CCSD intemediates for later calculations in double precision
 Finished.

Running a double precision version
           CCSD Lambda amplitudes will be solved using DIIS.
           Start     Size      MaxIter   EConv     LConv     
           3         7         100       1.00e-06  1.00e-04  
 ------------------------------------------------------------------------------
            Enorm      Ldiff       Comment
 ------------------------------------------------------------------------------
     1     5.81e-02   4.61e-02     
     2     1.06e-02   1.03e-03     
     3     3.59e-03   1.84e-03     
     4     1.47e-03   3.00e-04     Switched to DIIS steps.
     5     4.44e-04   3.19e-04     
     6     2.02e-04   7.06e-05     
     7     5.59e-05   2.56e-05     
     8     2.28e-05   4.59e-06     
     9     7.53e-06   9.50e-07     
    10     3.03e-06   9.39e-09     
    11     1.21e-06   7.02e-08     
    12     4.27e-07   7.44e-08     
 ------------------------------------------------------------------------------
                                   CCSD Lambda converged.

 CCSD calculation:   CPU 2521.54 s  wall 356.80 s

        Solving for CVS-EOMEE-CCSD A1 singlet states.

        CVS-EOMEE-CCSD/MP2 right amplitudes will be solved using Davidson.
        Amplitudes will be solved using shifted  algorithm.
     Hard-coded thresholds: 
     LinDepThresh=1.00e-15  NormThresh=1.00e-06  ReorthogonThresh=1.00e-02

      Roots     MaxVec    MaxIter   Precond   Conv      Shift    
      6         120       60        1         1.00e-05  6.87e+00  
 ------------------------------------------------------------------------------
      Iter ConvRoots NVecs ResNorm Current eigenvalues (eV)
 ------------------------------------------------------------------------------
      0    0      6     3.20e+00   201.0612   201.2391   201.3093   201.5679   201.8942   202.1343   
      1    0      12    7.90e+01   200.6734   200.8469   200.9168   201.1770   201.5008   201.7428   
      2    0      18    9.16e-01   191.2301   191.3219   191.3914   191.5679   191.9081   192.1304   
      3    0      24    1.13e-02   190.7433   190.9469   190.9829   191.1467   191.5431   191.7439   
      4    0      30    7.83e-02   190.6107   190.8862   190.9136   191.0331   191.4986   191.6917   
      5    0      36    2.62e-01   189.7245   190.4081   190.7564   190.7884   191.4528   191.5604   
      6    0      42    1.50e-01   188.7069   189.9777   190.5091   190.5543   191.3244   191.3546   
      7    0      48    3.44e-02   188.4258   189.9323   190.4610   190.5291   191.2913   191.3115   
      8    0      54    5.33e-02   188.0442   189.8998   190.4108   190.5202   191.2007   191.2910   
      9    0      60    1.31e-02   187.9040   189.8804   190.2953   190.5168   191.0930   191.2820   
      10   0      66    6.58e-02   187.8876   189.8737   190.1152   190.5149   190.9373   191.0692   
      11   0      72    3.18e-03   187.8851   189.8691   189.9970   190.5136   190.8123   191.0591   
      12   0      78    2.55e-02   187.8837   189.8592   189.8987   190.5131   190.7254   191.0513   
      13   0      84    1.22e-03   187.8833   189.8117   189.8768   190.5126   190.6775   191.0442   
      14   0      90    1.67e-03   187.8832   189.8009   189.8756   190.5124   190.6678   191.0413   
      15   2      96    2.63e-04   187.8832*  189.7973   189.8753   190.5124*  190.6639   191.0392   
      16   1      100   5.01e-04   187.8833*  189.7936   189.8750   190.5124   190.6595   191.0385   
      17   1      105   1.17e-04   187.8832*  189.7921   189.8748   190.5124   190.6582   191.0374   
      18   2      110   1.22e-04   187.8832*  189.7921   189.8748   190.5123*  190.6569   191.0370   
      19   3      114   4.89e-05   187.8832*  189.7915   189.8748*  190.5123*  190.6556   191.0367   
      20   3      117   3.46e-05   187.8832*  189.7909   189.8748*  190.5123*  190.6546   191.0366   
Found complex roots...
      21   4      120   1.40e-05   187.8832*  189.7909*  189.8747*  190.5123*  190.6541   191.0365   
      22   6      8     1.54e-06   187.8832*  189.7909*  189.8747*  190.5123*  190.6542*  191.0365*  

     Davidson procedure converged

 EOMEE transition 1/A1
 Total energy = -2796.77427755 a.u.  Excitation energy = 187.8832 eV.
 R0^2 = 0.0000  R1^2 = 0.9054  R2_CCVV^2 = 0.0017  R2_COVV^2 = 0.0464  Res^2 = 4.14e-07
 Conv-d = yes

 Amplitude    Transitions between orbitals
 -0.3379       9 (A1) A                  ->    32 (A1) A                  
 -0.3379       9 (A1) B                  ->    32 (A1) B                  
  0.2748       9 (A1) A                  ->    31 (A1) A                  
  0.2748       9 (A1) B                  ->    31 (A1) B                  
  0.2621       9 (A1) A                  ->    36 (A1) A                  
  0.2621       9 (A1) B                  ->    36 (A1) B                  
  0.2147       9 (A1) A                  ->    34 (A1) A                  
  0.2147       9 (A1) B                  ->    34 (A1) B                  
 -0.1928       9 (A1) A                  ->    28 (A1) A                  
 -0.1928       9 (A1) B                  ->    28 (A1) B                  
 -0.1279       9 (A1) A                  ->    30 (A1) A                  
 -0.1279       9 (A1) B                  ->    30 (A1) B                  
 -0.1257       9 (A1) A                  ->    39 (A1) A                  
 -0.1257       9 (A1) B                  ->    39 (A1) B                  

              Summary of significant orbitals:

               Number  Type             Irrep      Energy
               13      Occ  Alpha       9 (A1)     -7.4538
               13      Occ  Beta        9 (A1)     -7.4538
               60      Vir  Alpha      28 (A1)      0.0816
               65      Vir  Alpha      30 (A1)      0.1014
               67      Vir  Alpha      31 (A1)      0.1233
               68      Vir  Alpha      32 (A1)      0.1397
               74      Vir  Alpha      34 (A1)      0.1956
               78      Vir  Alpha      36 (A1)      0.2140
               87      Vir  Alpha      39 (A1)      0.2522
               60      Vir  Beta       28 (A1)      0.0816
               65      Vir  Beta       30 (A1)      0.1014
               67      Vir  Beta       31 (A1)      0.1233
               68      Vir  Beta       32 (A1)      0.1397
               74      Vir  Beta       34 (A1)      0.1956
               78      Vir  Beta       36 (A1)      0.2140
               87      Vir  Beta       39 (A1)      0.2522


 EOMEE transition 2/A1
 Total energy = -2796.70417106 a.u.  Excitation energy = 189.7909 eV.
 R0^2 = 0.0000  R1^2 = 0.8754  R2_CCVV^2 = 0.0017  R2_COVV^2 = 0.0615  Res^2 = 8.43e-07
 Conv-d = yes

 Amplitude    Transitions between orbitals
 -0.5744       2 (B2) A                  ->    12 (B2) A                  
 -0.5744       2 (B2) B                  ->    12 (B2) B                  
 -0.1361       2 (B2) A                  ->    7 (B2) A                   
 -0.1361       2 (B2) B                  ->    7 (B2) B                   
  0.1301       2 (B2) A                  ->    16 (B2) A                  
  0.1301       2 (B2) B                  ->    16 (B2) B                  
 -0.1094       2 (B2) A                  ->    10 (B2) A                  
 -0.1094       2 (B2) B                  ->    10 (B2) B                  

              Summary of significant orbitals:

               Number  Type             Irrep      Energy
               15      Occ  Alpha       2 (B2)     -7.4454
               15      Occ  Beta        2 (B2)     -7.4454
               42      Vir  Alpha       7 (B2)      0.0260
               56      Vir  Alpha      10 (B2)      0.0668
               63      Vir  Alpha      12 (B2)      0.0997
               80      Vir  Alpha      16 (B2)      0.2251
               42      Vir  Beta        7 (B2)      0.0260
               56      Vir  Beta       10 (B2)      0.0668
               63      Vir  Beta       12 (B2)      0.0997
               80      Vir  Beta       16 (B2)      0.2251


 EOMEE transition 3/A1
 Total energy = -2796.70109034 a.u.  Excitation energy = 189.8747 eV.
 R0^2 = 0.0000  R1^2 = 0.8948  R2_CCVV^2 = 0.0017  R2_COVV^2 = 0.0518  Res^2 = 1.30e-07
 Conv-d = yes

 Amplitude    Transitions between orbitals
 -0.3344       9 (A1) A                  ->    26 (A1) A                  
 -0.3344       9 (A1) B                  ->    26 (A1) B                  
 -0.2817       9 (A1) A                  ->    20 (A1) A                  
 -0.2817       9 (A1) B                  ->    20 (A1) B                  
 -0.2731       9 (A1) A                  ->    21 (A1) A                  
 -0.2731       9 (A1) B                  ->    21 (A1) B                  
 -0.2201       9 (A1) A                  ->    33 (A1) A                  
 -0.2201       9 (A1) B                  ->    33 (A1) B                  
  0.2104       9 (A1) A                  ->    25 (A1) A                  
  0.2104       9 (A1) B                  ->    25 (A1) B                  
 -0.1322       2 (B2) A                  ->    12 (B2) A                  
 -0.1322       2 (B2) B                  ->    12 (B2) B                  

              Summary of significant orbitals:

               Number  Type             Irrep      Energy
               13      Occ  Alpha       9 (A1)     -7.4538
               15      Occ  Alpha       2 (B2)     -7.4454
               13      Occ  Beta        9 (A1)     -7.4538
               15      Occ  Beta        2 (B2)     -7.4454
               39      Vir  Alpha      20 (A1)      0.0132
               41      Vir  Alpha      21 (A1)      0.0204
               52      Vir  Alpha      25 (A1)      0.0587
               54      Vir  Alpha      26 (A1)      0.0654
               72      Vir  Alpha      33 (A1)      0.1769
               63      Vir  Alpha      12 (B2)      0.0997
               39      Vir  Beta       20 (A1)      0.0132
               41      Vir  Beta       21 (A1)      0.0204
               52      Vir  Beta       25 (A1)      0.0587
               54      Vir  Beta       26 (A1)      0.0654
               72      Vir  Beta       33 (A1)      0.1769
               63      Vir  Beta       12 (B2)      0.0997


 EOMEE transition 4/A1
 Total energy = -2796.67766231 a.u.  Excitation energy = 190.5123 eV.
 R0^2 = 0.0000  R1^2 = 0.8918  R2_CCVV^2 = 0.0017  R2_COVV^2 = 0.0532  Res^2 = 6.35e-07
 Conv-d = yes

 Amplitude    Transitions between orbitals
  0.4269       4 (B1) A                  ->    12 (B1) A                  
  0.4269       4 (B1) B                  ->    12 (B1) B                  
  0.2872       4 (B1) A                  ->    17 (B1) A                  
  0.2872       4 (B1) B                  ->    17 (B1) B                  
  0.2724       4 (B1) A                  ->    13 (B1) A                  
  0.2724       4 (B1) B                  ->    13 (B1) B                  
  0.1801       4 (B1) A                  ->    15 (B1) A                  
  0.1801       4 (B1) B                  ->    15 (B1) B                  
 -0.1689       4 (B1) A                  ->    20 (B1) A                  
 -0.1689       4 (B1) B                  ->    20 (B1) B                  
 -0.1049       4 (B1) A                  ->    19 (B1) A                  
 -0.1049       4 (B1) B                  ->    19 (B1) B                  

              Summary of significant orbitals:

               Number  Type             Irrep      Energy
               14      Occ  Alpha       4 (B1)     -7.4455
               14      Occ  Beta        4 (B1)     -7.4455
               40      Vir  Alpha      12 (B1)      0.0201
               43      Vir  Alpha      13 (B1)      0.0291
               53      Vir  Alpha      15 (B1)      0.0630
               59      Vir  Alpha      17 (B1)      0.0763
               66      Vir  Alpha      19 (B1)      0.1191
               70      Vir  Alpha      20 (B1)      0.1649
               40      Vir  Beta       12 (B1)      0.0201
               43      Vir  Beta       13 (B1)      0.0291
               53      Vir  Beta       15 (B1)      0.0630
               59      Vir  Beta       17 (B1)      0.0763
               66      Vir  Beta       19 (B1)      0.1191
               70      Vir  Beta       20 (B1)      0.1649


 EOMEE transition 5/A1
 Total energy = -2796.67244557 a.u.  Excitation energy = 190.6542 eV.
 R0^2 = 0.0000  R1^2 = 0.8910  R2_CCVV^2 = 0.0017  R2_COVV^2 = 0.0536  Res^2 = 5.49e-06
 Conv-d = yes

 Amplitude    Transitions between orbitals
  0.4926       2 (B2) A                  ->    7 (B2) A                   
  0.4926       2 (B2) B                  ->    7 (B2) B                   
  0.2381       2 (B2) A                  ->    10 (B2) A                  
  0.2381       2 (B2) B                  ->    10 (B2) B                  
  0.2375       2 (B2) A                  ->    13 (B2) A                  
  0.2375       2 (B2) B                  ->    13 (B2) B                  
 -0.1589       2 (B2) A                  ->    12 (B2) A                  
 -0.1589       2 (B2) B                  ->    12 (B2) B                  
  0.1349       2 (B2) A                  ->    8 (B2) A                   
  0.1349       2 (B2) B                  ->    8 (B2) B                   
 -0.1288       2 (B2) A                  ->    11 (B2) A                  
 -0.1288       2 (B2) B                  ->    11 (B2) B                  

              Summary of significant orbitals:

               Number  Type             Irrep      Energy
               15      Occ  Alpha       2 (B2)     -7.4454
               15      Occ  Beta        2 (B2)     -7.4454
               42      Vir  Alpha       7 (B2)      0.0260
               46      Vir  Alpha       8 (B2)      0.0396
               56      Vir  Alpha      10 (B2)      0.0668
               58      Vir  Alpha      11 (B2)      0.0694
               63      Vir  Alpha      12 (B2)      0.0997
               69      Vir  Alpha      13 (B2)      0.1565
               42      Vir  Beta        7 (B2)      0.0260
               46      Vir  Beta        8 (B2)      0.0396
               56      Vir  Beta       10 (B2)      0.0668
               58      Vir  Beta       11 (B2)      0.0694
               63      Vir  Beta       12 (B2)      0.0997
               69      Vir  Beta       13 (B2)      0.1565


 EOMEE transition 6/A1
 Total energy = -2796.65839816 a.u.  Excitation energy = 191.0365 eV.
 R0^2 = 0.0000  R1^2 = 0.8872  R2_CCVV^2 = 0.0017  R2_COVV^2 = 0.0556  Res^2 = 1.73e-06
 Conv-d = yes

 Amplitude    Transitions between orbitals
 -0.3425       9 (A1) A                  ->    22 (A1) A                  
 -0.3425       9 (A1) B                  ->    22 (A1) B                  
  0.3144       9 (A1) A                  ->    21 (A1) A                  
  0.3144       9 (A1) B                  ->    21 (A1) B                  
 -0.2908       9 (A1) A                  ->    20 (A1) A                  
 -0.2908       9 (A1) B                  ->    20 (A1) B                  
 -0.2421       9 (A1) A                  ->    28 (A1) A                  
 -0.2421       9 (A1) B                  ->    28 (A1) B                  
 -0.1309       9 (A1) A                  ->    34 (A1) A                  
 -0.1309       9 (A1) B                  ->    34 (A1) B                  
 -0.1138       9 (A1) A                  ->    23 (A1) A                  
 -0.1138       9 (A1) B                  ->    23 (A1) B                  
  0.1003       9 (A1) A                  ->    25 (A1) A                  
  0.1003       9 (A1) B                  ->    25 (A1) B                  

              Summary of significant orbitals:

               Number  Type             Irrep      Energy
               13      Occ  Alpha       9 (A1)     -7.4538
               13      Occ  Beta        9 (A1)     -7.4538
               39      Vir  Alpha      20 (A1)      0.0132
               41      Vir  Alpha      21 (A1)      0.0204
               44      Vir  Alpha      22 (A1)      0.0297
               45      Vir  Alpha      23 (A1)      0.0365
               52      Vir  Alpha      25 (A1)      0.0587
               60      Vir  Alpha      28 (A1)      0.0816
               74      Vir  Alpha      34 (A1)      0.1956
               39      Vir  Beta       20 (A1)      0.0132
               41      Vir  Beta       21 (A1)      0.0204
               44      Vir  Beta       22 (A1)      0.0297
               45      Vir  Beta       23 (A1)      0.0365
               52      Vir  Beta       25 (A1)      0.0587
               60      Vir  Beta       28 (A1)      0.0816
               74      Vir  Beta       34 (A1)      0.1956


      CVS-EOM-CCSD/MP2 left amplitudes will be solved using Davidson.
        Amplitudes will be solved using MOM  algorithm.
     Hard-coded thresholds: 
     LinDepThresh=1.00e-15  NormThresh=1.00e-06  ReorthogonThresh=1.00e-02

      Roots     MaxVec    MaxIter   Precond   Conv      Shift    
      6         120       60        1         1.00e-05  6.87e+00  
 ------------------------------------------------------------------------------
      Iter ConvRoots NVecs ResNorm Current eigenvalues (eV)
 ------------------------------------------------------------------------------
      0    0      6     3.89e-02   187.8832   189.7909   189.8747   190.5123   190.6542   191.0365   
      1    0      12    2.87e+02   187.8832   189.7909   189.8747   190.5122   190.6542   191.0364   
      2    0      18    3.02e+00   187.8832   189.7909   189.8747   190.5123   190.6541   191.0364   
      3    0      24    2.50e-02   187.8832   189.7909   189.8747   190.5122   190.6541   191.0364   
      4    0      30    6.47e-03   187.8832   189.7909   189.8747   190.5122   190.6541   191.0364   
      5    0      36    3.93e-04   187.8832   189.7909   189.8747   190.5122   190.6541   191.0364   
      6    0      42    8.61e-04   187.8832   189.7909   189.8747   190.5122   190.6541   191.0364   
      7    2      48    1.00e-04   187.8832*  189.7909   189.8747*  190.5122   190.6541   191.0364   
      8    2      52    9.47e-05   187.8832*  189.7909   189.8747*  190.5122   190.6541   191.0364   
      9    0      56    2.44e-04   187.8832   189.7909   189.8747   190.5122   190.6541   191.0364   
Found complex roots...
      10   0      62    3.52e-04   187.8832   189.7909   189.8747   190.5122   190.6540   191.0365   
      11   0      68    3.01e-03   187.8832   189.7909   189.8747   190.5123   190.6542   191.0364   
      12   1      74    5.52e-05   187.8832*  189.7909   189.8747   190.5122   190.6540   191.0364   
      13   2      79    3.11e-05   187.8832*  189.7909*  189.8747   190.5122   190.6540   191.0364   
      14   0      83    1.19e-02   187.8832   189.7909   189.8747   190.5122   190.6540   191.0364   
      15   3      89    2.53e-04   187.8832*  189.7909   189.8747   190.5122*  190.6540   191.0364*  
      16   3      92    1.87e-05   187.8832*  189.7909*  189.8747*  190.5122   190.6540   191.0364   
      17   5      95    8.56e-06   187.8832*  189.7909*  189.8747*  190.5122*  190.6540*  191.0364   
      18   5      96    3.63e-05   187.8832*  189.7909*  189.8747*  190.5122*  190.6540*  191.0364   
      19   5      97    2.95e-06   187.8832*  189.7909*  189.8747*  190.5122*  190.6540*  191.0364   
      20   5      98    7.27e-06   187.8832*  189.7909*  189.8747*  190.5122*  190.6540*  191.0364   
      21   5      99    4.37e-06   187.8832*  189.7909*  189.8747*  190.5122*  190.6540*  191.0364   
      22   4      100   5.36e-05   187.8832   189.7909*  189.8747*  190.5122*  190.6540*  191.0364   
      23   5      102   6.30e-06   187.8832*  189.7909*  189.8747*  190.5122*  190.6540*  191.0364   
      24   6      103   1.15e-06   187.8832*  189.7909*  189.8747*  190.5122*  190.6540*  191.0364*  

     Davidson procedure converged

        Solving for CVS-EOMEE-CCSD B1 singlet states.

        CVS-EOMEE-CCSD/MP2 right amplitudes will be solved using Davidson.
        Amplitudes will be solved using shifted  algorithm.
     Hard-coded thresholds: 
     LinDepThresh=1.00e-15  NormThresh=1.00e-06  ReorthogonThresh=1.00e-02

      Roots     MaxVec    MaxIter   Precond   Conv      Shift    
      6         120       60        1         1.00e-05  6.87e+00  
 ------------------------------------------------------------------------------
      Iter ConvRoots NVecs ResNorm Current eigenvalues (eV)
 ------------------------------------------------------------------------------
      0    0      6     3.20e+00   200.8328   201.3155   201.4624   201.8196   201.9723   202.1163   
      1    0      12    7.91e+01   200.4425   200.9225   201.0727   201.4264   201.5787   201.7254   
      2    0      18    9.20e-01   190.9718   191.3151   191.5647   191.8257   192.0024   192.1474   
      3    0      24    1.12e-02   190.4862   190.9026   191.1887   191.4713   191.5925   191.7811   
      4    0      30    7.59e-02   190.3558   190.7934   191.1258   191.4264   191.5323   191.7342   
      5    0      36    3.61e-01   189.4373   190.0562   190.9985   191.3029   191.3812   191.6820   
      6    0      42    1.17e-01   188.4515   189.6651   190.7950   191.0994   191.1413   191.4425   
      7    0      48    5.82e-02   188.1003   189.6342   190.7629   191.0422   191.1072   191.3892   
      8    0      54    5.71e-02   187.7092   189.6115   190.7520   190.9092   191.0929   191.3395   
      9    0      60    6.61e-03   187.5996   189.6004   190.7494   190.8160   191.0868   191.3009   
      10   0      66    4.30e-03   187.5872   189.5974   190.7486   190.7960   191.0827   191.2797   
      11   0      72    8.98e-04   187.5857   189.5968   190.7475   190.7890   191.0811   191.2695   
      12   0      78    7.97e-04   187.5848   189.5966   190.7472   190.7865   191.0805   191.2644   
      13   1      84    1.99e-04   187.5843   189.5966*  190.7471   190.7831   191.0806   191.2608   
      14   2      89    1.58e-04   187.5842*  189.5966*  190.7470   190.7826   191.0802   191.2580   
      15   4      93    4.77e-05   187.5842*  189.5966*  190.7469*  190.7822   191.0803*  191.2576   
      16   3      95    6.43e-05   187.5842*  189.5966*  190.7469*  190.7820   191.0802   191.2566   
      17   4      98    1.77e-05   187.5842*  189.5966*  190.7469*  190.7820*  191.0802   191.2561   
      18   4      100   1.10e-05   187.5842*  189.5966*  190.7469*  190.7820*  191.0801   191.2559   
      19   4      102   2.99e-05   187.5842*  189.5966*  190.7469*  190.7820*  191.0801   191.2557   
      20   2      104   1.82e-02   187.5842*  189.5966*  190.7469   190.7778   190.7834   191.0804   
      21   5      108   5.84e-03   187.5842*  189.5966*  190.5709   190.7470*  190.7820*  191.0803*  
      22   5      109   2.07e-03   187.5842*  189.5966*  190.5028   190.7470*  190.7820*  191.0803*  
      23   5      110   7.48e-04   187.5842*  189.5966*  190.4746   190.7470*  190.7820*  191.0803*  
      24   5      111   3.32e-04   187.5842*  189.5966*  190.4663   190.7470*  190.7820*  191.0803*  
      25   5      112   1.94e-04   187.5842*  189.5966*  190.4627   190.7470*  190.7820*  191.0803*  
      26   5      113   9.95e-05   187.5842*  189.5966*  190.4609   190.7470*  190.7820*  191.0803*  
      27   5      114   6.90e-05   187.5842*  189.5966*  190.4595   190.7470*  190.7820*  191.0803*  
      28   5      115   3.67e-05   187.5842*  189.5966*  190.4587   190.7470*  190.7820*  191.0803*  
      29   5      116   2.85e-05   187.5842*  189.5966*  190.4581   190.7470*  190.7820*  191.0803*  
      30   5      117   1.94e-05   187.5842*  189.5966*  190.4575   190.7470*  190.7820*  191.0803*  
      31   5      118   1.31e-05   187.5842*  189.5966*  190.4572   190.7470*  190.7820*  191.0803*  
      32   5      119   7.17e-06   187.5842*  189.5966*  190.4571   190.7470*  190.7820*  191.0803*  
      33   5      120   4.30e-06   187.5842*  189.5966*  190.4571   190.7470*  190.7820*  191.0803*  
      34   6      7     2.62e-06   187.5842*  189.5966*  190.4570*  190.7470*  190.7820*  191.0803*  

     Davidson procedure converged

 EOMEE transition 1/B1
 Total energy = -2796.78526767 a.u.  Excitation energy = 187.5842 eV.
 R0^2 = 0.0000  R1^2 = 0.9092  R2_CCVV^2 = 0.0017  R2_COVV^2 = 0.0445  Res^2 = 1.49e-06
 Conv-d = yes

 Amplitude    Transitions between orbitals
  0.3342       4 (B1) A                  ->    32 (A1) A                  
  0.3342       4 (B1) B                  ->    32 (A1) B                  
 -0.2761       4 (B1) A                  ->    31 (A1) A                  
 -0.2761       4 (B1) B                  ->    31 (A1) B                  
 -0.2702       4 (B1) A                  ->    36 (A1) A                  
 -0.2702       4 (B1) B                  ->    36 (A1) B                  
 -0.2185       4 (B1) A                  ->    34 (A1) A                  
 -0.2185       4 (B1) B                  ->    34 (A1) B                  
  0.1885       4 (B1) A                  ->    28 (A1) A                  
  0.1885       4 (B1) B                  ->    28 (A1) B                  
  0.1290       4 (B1) A                  ->    39 (A1) A                  
  0.1290       4 (B1) B                  ->    39 (A1) B                  
  0.1278       4 (B1) A                  ->    30 (A1) A                  
  0.1278       4 (B1) B                  ->    30 (A1) B                  

              Summary of significant orbitals:

               Number  Type             Irrep      Energy
               14      Occ  Alpha       4 (B1)     -7.4455
               14      Occ  Beta        4 (B1)     -7.4455
               60      Vir  Alpha      28 (A1)      0.0816
               65      Vir  Alpha      30 (A1)      0.1014
               67      Vir  Alpha      31 (A1)      0.1233
               68      Vir  Alpha      32 (A1)      0.1397
               74      Vir  Alpha      34 (A1)      0.1956
               78      Vir  Alpha      36 (A1)      0.2140
               87      Vir  Alpha      39 (A1)      0.2522
               60      Vir  Beta       28 (A1)      0.0816
               65      Vir  Beta       30 (A1)      0.1014
               67      Vir  Beta       31 (A1)      0.1233
               68      Vir  Beta       32 (A1)      0.1397
               74      Vir  Beta       34 (A1)      0.1956
               78      Vir  Beta       36 (A1)      0.2140
               87      Vir  Beta       39 (A1)      0.2522


 EOMEE transition 2/B1
 Total energy = -2796.71131205 a.u.  Excitation energy = 189.5966 eV.
 R0^2 = 0.0000  R1^2 = 0.8969  R2_CCVV^2 = 0.0017  R2_COVV^2 = 0.0507  Res^2 = 2.26e-06
 Conv-d = yes

 Amplitude    Transitions between orbitals
 -0.3486       4 (B1) A                  ->    26 (A1) A                  
 -0.3486       4 (B1) B                  ->    26 (A1) B                  
 -0.2836       4 (B1) A                  ->    21 (A1) A                  
 -0.2836       4 (B1) B                  ->    21 (A1) B                  
 -0.2821       4 (B1) A                  ->    20 (A1) A                  
 -0.2821       4 (B1) B                  ->    20 (A1) B                  
 -0.2341       4 (B1) A                  ->    33 (A1) A                  
 -0.2341       4 (B1) B                  ->    33 (A1) B                  
  0.2155       4 (B1) A                  ->    25 (A1) A                  
  0.2155       4 (B1) B                  ->    25 (A1) B                  
 -0.1020       4 (B1) A                  ->    29 (A1) A                  
 -0.1020       4 (B1) B                  ->    29 (A1) B                  

              Summary of significant orbitals:

               Number  Type             Irrep      Energy
               14      Occ  Alpha       4 (B1)     -7.4455
               14      Occ  Beta        4 (B1)     -7.4455
               39      Vir  Alpha      20 (A1)      0.0132
               41      Vir  Alpha      21 (A1)      0.0204
               52      Vir  Alpha      25 (A1)      0.0587
               54      Vir  Alpha      26 (A1)      0.0654
               61      Vir  Alpha      29 (A1)      0.0865
               72      Vir  Alpha      33 (A1)      0.1769
               39      Vir  Beta       20 (A1)      0.0132
               41      Vir  Beta       21 (A1)      0.0204
               52      Vir  Beta       25 (A1)      0.0587
               54      Vir  Beta       26 (A1)      0.0654
               61      Vir  Beta       29 (A1)      0.0865
               72      Vir  Beta       33 (A1)      0.1769


 EOMEE transition 3/B1
 Total energy = -2796.67969375 a.u.  Excitation energy = 190.4570 eV.
 R0^2 = 0.0000  R1^2 = 0.8669  R2_CCVV^2 = 0.0017  R2_COVV^2 = 0.0657  Res^2 = 1.27e-06
 Conv-d = yes

 Amplitude    Transitions between orbitals
 -0.6160       2 (B2) A                  ->    5 (A2) A                   
 -0.6160       2 (B2) B                  ->    5 (A2) B                   
 -0.2032       2 (B2) A                  ->    4 (A2) A                   
 -0.2032       2 (B2) B                  ->    4 (A2) B                   

              Summary of significant orbitals:

               Number  Type             Irrep      Energy
               15      Occ  Alpha       2 (B2)     -7.4454
               15      Occ  Beta        2 (B2)     -7.4454
               51      Vir  Alpha       4 (A2)      0.0553
               64      Vir  Alpha       5 (A2)      0.1009
               51      Vir  Beta        4 (A2)      0.0553
               64      Vir  Beta        5 (A2)      0.1009


 EOMEE transition 4/B1
 Total energy = -2796.66903659 a.u.  Excitation energy = 190.7470 eV.
 R0^2 = 0.0000  R1^2 = 0.8909  R2_CCVV^2 = 0.0017  R2_COVV^2 = 0.0537  Res^2 = 8.68e-06
 Conv-d = yes

 Amplitude    Transitions between orbitals
  0.4282       9 (A1) A                  ->    12 (B1) A                  
  0.4282       9 (A1) B                  ->    12 (B1) B                  
  0.2889       9 (A1) A                  ->    17 (B1) A                  
  0.2889       9 (A1) B                  ->    17 (B1) B                  
  0.2721       9 (A1) A                  ->    13 (B1) A                  
  0.2721       9 (A1) B                  ->    13 (B1) B                  
  0.1816       9 (A1) A                  ->    15 (B1) A                  
  0.1816       9 (A1) B                  ->    15 (B1) B                  
 -0.1720       9 (A1) A                  ->    20 (B1) A                  
 -0.1720       9 (A1) B                  ->    20 (B1) B                  
 -0.1064       9 (A1) A                  ->    19 (B1) A                  
 -0.1064       9 (A1) B                  ->    19 (B1) B                  

              Summary of significant orbitals:

               Number  Type             Irrep      Energy
               13      Occ  Alpha       9 (A1)     -7.4538
               13      Occ  Beta        9 (A1)     -7.4538
               40      Vir  Alpha      12 (B1)      0.0201
               43      Vir  Alpha      13 (B1)      0.0291
               53      Vir  Alpha      15 (B1)      0.0630
               59      Vir  Alpha      17 (B1)      0.0763
               66      Vir  Alpha      19 (B1)      0.1191
               70      Vir  Alpha      20 (B1)      0.1649
               40      Vir  Beta       12 (B1)      0.0201
               43      Vir  Beta       13 (B1)      0.0291
               53      Vir  Beta       15 (B1)      0.0630
               59      Vir  Beta       17 (B1)      0.0763
               66      Vir  Beta       19 (B1)      0.1191
               70      Vir  Beta       20 (B1)      0.1649


 EOMEE transition 5/B1
 Total energy = -2796.66774957 a.u.  Excitation energy = 190.7820 eV.
 R0^2 = 0.0000  R1^2 = 0.8887  R2_CCVV^2 = 0.0017  R2_COVV^2 = 0.0548  Res^2 = 1.94e-06
 Conv-d = yes

 Amplitude    Transitions between orbitals
  0.3492       4 (B1) A                  ->    22 (A1) A                  
  0.3492       4 (B1) B                  ->    22 (A1) B                  
 -0.2987       4 (B1) A                  ->    21 (A1) A                  
 -0.2987       4 (B1) B                  ->    21 (A1) B                  
  0.2852       4 (B1) A                  ->    20 (A1) A                  
  0.2852       4 (B1) B                  ->    20 (A1) B                  
  0.2539       4 (B1) A                  ->    28 (A1) A                  
  0.2539       4 (B1) B                  ->    28 (A1) B                  
  0.1333       4 (B1) A                  ->    34 (A1) A                  
  0.1333       4 (B1) B                  ->    34 (A1) B                  
  0.1222       4 (B1) A                  ->    23 (A1) A                  
  0.1222       4 (B1) B                  ->    23 (A1) B                  

              Summary of significant orbitals:

               Number  Type             Irrep      Energy
               14      Occ  Alpha       4 (B1)     -7.4455
               14      Occ  Beta        4 (B1)     -7.4455
               39      Vir  Alpha      20 (A1)      0.0132
               41      Vir  Alpha      21 (A1)      0.0204
               44      Vir  Alpha      22 (A1)      0.0297
               45      Vir  Alpha      23 (A1)      0.0365
               60      Vir  Alpha      28 (A1)      0.0816
               74      Vir  Alpha      34 (A1)      0.1956
               39      Vir  Beta       20 (A1)      0.0132
               41      Vir  Beta       21 (A1)      0.0204
               44      Vir  Beta       22 (A1)      0.0297
               45      Vir  Beta       23 (A1)      0.0365
               60      Vir  Beta       28 (A1)      0.0816
               74      Vir  Beta       34 (A1)      0.1956


 EOMEE transition 6/B1
 Total energy = -2796.65678784 a.u.  Excitation energy = 191.0803 eV.
 R0^2 = 0.0000  R1^2 = 0.8889  R2_CCVV^2 = 0.0017  R2_COVV^2 = 0.0547  Res^2 = 9.34e-08
 Conv-d = yes

 Amplitude    Transitions between orbitals
  0.3936       4 (B1) A                  ->    20 (A1) A                  
  0.3936       4 (B1) B                  ->    20 (A1) B                  
 -0.3448       4 (B1) A                  ->    23 (A1) A                  
 -0.3448       4 (B1) B                  ->    23 (A1) B                  
  0.1809       4 (B1) A                  ->    30 (A1) A                  
  0.1809       4 (B1) B                  ->    30 (A1) B                  
 -0.1535       4 (B1) A                  ->    28 (A1) A                  
 -0.1535       4 (B1) B                  ->    28 (A1) B                  
 -0.1494       4 (B1) A                  ->    32 (A1) A                  
 -0.1494       4 (B1) B                  ->    32 (A1) B                  
 -0.1409       4 (B1) A                  ->    29 (A1) A                  
 -0.1409       4 (B1) B                  ->    29 (A1) B                  
 -0.1318       4 (B1) A                  ->    26 (A1) A                  
 -0.1318       4 (B1) B                  ->    26 (A1) B                  
  0.1231       4 (B1) A                  ->    24 (A1) A                  
  0.1231       4 (B1) B                  ->    24 (A1) B                  
 -0.1034       4 (B1) A                  ->    34 (A1) A                  
 -0.1034       4 (B1) B                  ->    34 (A1) B                  

              Summary of significant orbitals:

               Number  Type             Irrep      Energy
               14      Occ  Alpha       4 (B1)     -7.4455
               14      Occ  Beta        4 (B1)     -7.4455
               39      Vir  Alpha      20 (A1)      0.0132
               45      Vir  Alpha      23 (A1)      0.0365
               49      Vir  Alpha      24 (A1)      0.0478
               54      Vir  Alpha      26 (A1)      0.0654
               60      Vir  Alpha      28 (A1)      0.0816
               61      Vir  Alpha      29 (A1)      0.0865
               65      Vir  Alpha      30 (A1)      0.1014
               68      Vir  Alpha      32 (A1)      0.1397
               74      Vir  Alpha      34 (A1)      0.1956
               39      Vir  Beta       20 (A1)      0.0132
               45      Vir  Beta       23 (A1)      0.0365
               49      Vir  Beta       24 (A1)      0.0478
               54      Vir  Beta       26 (A1)      0.0654
               60      Vir  Beta       28 (A1)      0.0816
               61      Vir  Beta       29 (A1)      0.0865
               65      Vir  Beta       30 (A1)      0.1014
               68      Vir  Beta       32 (A1)      0.1397
               74      Vir  Beta       34 (A1)      0.1956


      CVS-EOM-CCSD/MP2 left amplitudes will be solved using Davidson.
        Amplitudes will be solved using MOM  algorithm.
     Hard-coded thresholds: 
     LinDepThresh=1.00e-15  NormThresh=1.00e-06  ReorthogonThresh=1.00e-02

      Roots     MaxVec    MaxIter   Precond   Conv      Shift    
      6         120       60        1         1.00e-05  6.87e+00  
 ------------------------------------------------------------------------------
      Iter ConvRoots NVecs ResNorm Current eigenvalues (eV)
 ------------------------------------------------------------------------------
      0    0      6     3.90e-02   187.5842   189.5966   190.4570   190.7470   190.7820   191.0803   
      1    0      12    4.15e+02   187.5842   189.5966   190.4570   190.7470   190.7820   191.0803   
      2    0      18    3.89e+00   187.5842   189.5966   190.4570   190.7469   190.7820   191.0803   
      3    0      24    2.72e-02   187.5842   189.5966   190.4570   190.7469   190.7820   191.0803   
      4    0      30    8.26e-03   187.5842   189.5966   190.4570   190.7469   190.7820   191.0803   
      5    0      36    2.37e-04   187.5842   189.5966   190.4570   190.7469   190.7820   191.0803   
      6    0      42    2.77e-04   187.5842   189.5966   190.4570   190.7469   190.7820   191.0803   
      7    1      48    6.17e-05   187.5842   189.5966   190.4570   190.7469   190.7820   191.0803*  
Found complex roots...
      8    1      53    2.35e-04   187.5842   189.5966   190.4570   190.7469   190.7820   191.0803*  
      9    1      58    3.98e-05   187.5842*  189.5966   190.4570   190.7469   190.7820   191.0803   
      10   2      63    2.30e-05   187.5842*  189.5966   190.4570   190.7469*  190.7820   191.0803   
      11   2      67    1.34e-05   187.5842*  189.5966   190.4570   190.7469*  190.7820   191.0803   
      12   5      71    1.49e-05   187.5842*  189.5966*  190.4570   190.7469*  190.7820*  191.0803*  
Found complex roots...
      13   5      72    5.25e-06   187.5842*  189.5966*  190.4570   190.7469*  190.7820*  191.0803*  
Found complex roots...
      14   5      73    4.23e-06   187.5842*  189.5966*  190.4570   190.7469*  190.7820*  191.0803*  
      15   5      74    4.92e-05   187.5842*  189.5966*  190.4570   190.7469*  190.7820*  191.0803*  
      16   6      75    2.75e-06   187.5842*  189.5966*  190.4570*  190.7469*  190.7820*  191.0803*  

     Davidson procedure converged

        Solving for CVS-EOMEE-CCSD B2 singlet states.

        CVS-EOMEE-CCSD/MP2 right amplitudes will be solved using Davidson.
        Amplitudes will be solved using shifted  algorithm.
     Hard-coded thresholds: 
     LinDepThresh=1.00e-15  NormThresh=1.00e-06  ReorthogonThresh=1.00e-02

      Roots     MaxVec    MaxIter   Precond   Conv      Shift    
      6         120       60        1         1.00e-05  6.87e+00  
 ------------------------------------------------------------------------------
      Iter ConvRoots NVecs ResNorm Current eigenvalues (eV)
 ------------------------------------------------------------------------------
      0    0      6     3.21e+00   200.8315   201.3139   201.5333   201.8176   201.9500   201.9712   
      1    0      12    7.92e+01   200.4413   200.9210   201.1432   201.4245   201.5567   201.5777   
      2    0      18    9.29e-01   190.9687   191.3125   191.6364   191.8223   191.9800   191.9997   
      3    0      24    1.17e-02   190.4806   190.8970   191.2298   191.4643   191.5865   191.6159   
      4    0      30    7.59e-02   190.3500   190.7878   191.1580   191.4190   191.5261   191.5691   
      5    0      36    2.76e-01   189.4419   190.0553   191.0320   191.2989   191.3740   191.5328   
      6    0      42    1.34e-01   188.4429   189.6582   190.7662   191.0981   191.1285   191.4539   
      7    0      48    5.35e-02   188.1371   189.6283   190.7050   191.0419   191.0941   191.3947   
      8    0      54    7.28e-02   187.7093   189.6042   190.6524   190.9067   191.0787   191.3338   
      9    0      60    1.16e-02   187.5975   189.5935   190.5559   190.8107   191.0730   191.2989   
      10   0      66    9.18e-02   187.5853   189.5906   190.3483   190.7895   191.0684   191.1749   
      11   0      72    4.61e-03   187.5838   189.5894   190.2012   190.7827   191.0329   191.0667   
      12   0      78    2.23e-02   187.5829   189.5892   190.0902   190.7796   190.9533   191.0661   
      13   1      84    1.79e-03   187.5823   189.5892*  190.0109   190.7754   190.9021   191.0661   
      14   2      89    1.87e-03   187.5823*  189.5892*  189.9966   190.7749   190.8912   191.0657   
      15   3      93    1.56e-04   187.5823*  189.5892*  189.9915   190.7745   190.8877   191.0658*  
      16   3      96    3.47e-04   187.5823*  189.5892*  189.9879   190.7745   190.8837   191.0658*  
      17   4      99    1.13e-04   187.5823*  189.5892*  189.9861   190.7744*  190.8821   191.0658*  
      18   4      101   1.06e-04   187.5823*  189.5892*  189.9857   190.7744*  190.8811   191.0658*  
      19   4      103   7.49e-05   187.5823*  189.5892*  189.9847   190.7744*  190.8792   191.0658*  
      20   4      105   3.12e-05   187.5823*  189.5892*  189.9841   190.7744*  190.8782   191.0658*  
      21   5      107   1.34e-05   187.5823*  189.5892*  189.9843*  190.7744*  190.8778   191.0658*  
      22   5      108   5.85e-06   187.5823*  189.5892*  189.9843*  190.7744*  190.8779   191.0658*  
      23   5      109   5.83e-06   187.5823*  189.5892*  189.9842*  190.7744*  190.8778   191.0658*  
      24   6      110   4.08e-06   187.5823*  189.5892*  189.9842*  190.7744*  190.8777*  191.0658*  

     Davidson procedure converged

 EOMEE transition 1/B2
 Total energy = -2796.78533497 a.u.  Excitation energy = 187.5823 eV.
 R0^2 = 0.0000  R1^2 = 0.9091  R2_CCVV^2 = 0.0017  R2_COVV^2 = 0.0446  Res^2 = 2.52e-06
 Conv-d = yes

 Amplitude    Transitions between orbitals
 -0.3344       2 (B2) A                  ->    32 (A1) A                  
 -0.3344       2 (B2) B                  ->    32 (A1) B                  
  0.2757       2 (B2) A                  ->    31 (A1) A                  
  0.2757       2 (B2) B                  ->    31 (A1) B                  
  0.2701       2 (B2) A                  ->    36 (A1) A                  
  0.2701       2 (B2) B                  ->    36 (A1) B                  
  0.2183       2 (B2) A                  ->    34 (A1) A                  
  0.2183       2 (B2) B                  ->    34 (A1) B                  
 -0.1884       2 (B2) A                  ->    28 (A1) A                  
 -0.1884       2 (B2) B                  ->    28 (A1) B                  
 -0.1289       2 (B2) A                  ->    39 (A1) A                  
 -0.1289       2 (B2) B                  ->    39 (A1) B                  
 -0.1277       2 (B2) A                  ->    30 (A1) A                  
 -0.1277       2 (B2) B                  ->    30 (A1) B                  

              Summary of significant orbitals:

               Number  Type             Irrep      Energy
               15      Occ  Alpha       2 (B2)     -7.4454
               15      Occ  Beta        2 (B2)     -7.4454
               60      Vir  Alpha      28 (A1)      0.0816
               65      Vir  Alpha      30 (A1)      0.1014
               67      Vir  Alpha      31 (A1)      0.1233
               68      Vir  Alpha      32 (A1)      0.1397
               74      Vir  Alpha      34 (A1)      0.1956
               78      Vir  Alpha      36 (A1)      0.2140
               87      Vir  Alpha      39 (A1)      0.2522
               60      Vir  Beta       28 (A1)      0.0816
               65      Vir  Beta       30 (A1)      0.1014
               67      Vir  Beta       31 (A1)      0.1233
               68      Vir  Beta       32 (A1)      0.1397
               74      Vir  Beta       34 (A1)      0.1956
               78      Vir  Beta       36 (A1)      0.2140
               87      Vir  Beta       39 (A1)      0.2522


 EOMEE transition 2/B2
 Total energy = -2796.71158402 a.u.  Excitation energy = 189.5892 eV.
 R0^2 = 0.0000  R1^2 = 0.8967  R2_CCVV^2 = 0.0017  R2_COVV^2 = 0.0508  Res^2 = 4.46e-06
 Conv-d = yes

 Amplitude    Transitions between orbitals
 -0.3497       2 (B2) A                  ->    26 (A1) A                  
 -0.3497       2 (B2) B                  ->    26 (A1) B                  
 -0.2824       2 (B2) A                  ->    21 (A1) A                  
 -0.2824       2 (B2) B                  ->    21 (A1) B                  
 -0.2817       2 (B2) A                  ->    20 (A1) A                  
 -0.2817       2 (B2) B                  ->    20 (A1) B                  
 -0.2318       2 (B2) A                  ->    33 (A1) A                  
 -0.2318       2 (B2) B                  ->    33 (A1) B                  
  0.2158       2 (B2) A                  ->    25 (A1) A                  
  0.2158       2 (B2) B                  ->    25 (A1) B                  
 -0.1019       2 (B2) A                  ->    29 (A1) A                  
 -0.1019       2 (B2) B                  ->    29 (A1) B                  

              Summary of significant orbitals:

               Number  Type             Irrep      Energy
               15      Occ  Alpha       2 (B2)     -7.4454
               15      Occ  Beta        2 (B2)     -7.4454
               39      Vir  Alpha      20 (A1)      0.0132
               41      Vir  Alpha      21 (A1)      0.0204
               52      Vir  Alpha      25 (A1)      0.0587
               54      Vir  Alpha      26 (A1)      0.0654
               61      Vir  Alpha      29 (A1)      0.0865
               72      Vir  Alpha      33 (A1)      0.1769
               39      Vir  Beta       20 (A1)      0.0132
               41      Vir  Beta       21 (A1)      0.0204
               52      Vir  Beta       25 (A1)      0.0587
               54      Vir  Beta       26 (A1)      0.0654
               61      Vir  Beta       29 (A1)      0.0865
               72      Vir  Beta       33 (A1)      0.1769


 EOMEE transition 3/B2
 Total energy = -2796.69706827 a.u.  Excitation energy = 189.9842 eV.
 R0^2 = 0.0000  R1^2 = 0.8728  R2_CCVV^2 = 0.0017  R2_COVV^2 = 0.0628  Res^2 = 4.04e-07
 Conv-d = yes

 Amplitude    Transitions between orbitals
 -0.5889       9 (A1) A                  ->    12 (B2) A                  
 -0.5889       9 (A1) B                  ->    12 (B2) B                  
  0.1365       9 (A1) A                  ->    16 (B2) A                  
  0.1365       9 (A1) B                  ->    16 (B2) B                  
 -0.1291       9 (A1) A                  ->    7 (B2) A                   
 -0.1291       9 (A1) B                  ->    7 (B2) B                   
 -0.1072       9 (A1) A                  ->    10 (B2) A                  
 -0.1072       9 (A1) B                  ->    10 (B2) B                  
 -0.1029       9 (A1) A                  ->    18 (B2) A                  
 -0.1029       9 (A1) B                  ->    18 (B2) B                  

              Summary of significant orbitals:

               Number  Type             Irrep      Energy
               13      Occ  Alpha       9 (A1)     -7.4538
               13      Occ  Beta        9 (A1)     -7.4538
               42      Vir  Alpha       7 (B2)      0.0260
               56      Vir  Alpha      10 (B2)      0.0668
               63      Vir  Alpha      12 (B2)      0.0997
               80      Vir  Alpha      16 (B2)      0.2251
               96      Vir  Alpha      18 (B2)      0.3529
               42      Vir  Beta        7 (B2)      0.0260
               56      Vir  Beta       10 (B2)      0.0668
               63      Vir  Beta       12 (B2)      0.0997
               80      Vir  Beta       16 (B2)      0.2251
               96      Vir  Beta       18 (B2)      0.3529


 EOMEE transition 4/B2
 Total energy = -2796.66802819 a.u.  Excitation energy = 190.7744 eV.
 R0^2 = 0.0000  R1^2 = 0.8886  R2_CCVV^2 = 0.0017  R2_COVV^2 = 0.0549  Res^2 = 7.60e-06
 Conv-d = yes

 Amplitude    Transitions between orbitals
[...]
 Oscillator strength (a.u.): 0.000007
 Norm of one-particle transition density matrix:
   A->B: 0.943896;   B->A: 0.924334
   ||gamma^AB||*||gamma^BA||: 0.872475

 ------------------------------------------------------------------------------
 State A: ccsd: 0/A1
 State B: cvs_eomee_ccsd/rhfref/singlets: 5/A1
 Transition dipole moment (a.u.):
   A->B: 0.000741 (X 0.000000, Y 0.000000, Z 0.000741)
   B->A: 0.000569 (X 0.000000, Y 0.000000, Z 0.000569)
 Oscillator strength (a.u.): 0.000002
 Norm of one-particle transition density matrix:
   A->B: 0.942092;   B->A: 0.924037
   ||gamma^AB||*||gamma^BA||: 0.870528

 ------------------------------------------------------------------------------
 State A: ccsd: 0/A1
 State B: cvs_eomee_ccsd/rhfref/singlets: 6/A1
 Transition dipole moment (a.u.):
   A->B: 0.001250 (X 0.000000, Y 0.000000, Z -0.001250)
   B->A: 0.001168 (X 0.000000, Y 0.000000, Z -0.001168)
 Oscillator strength (a.u.): 0.000007
 Norm of one-particle transition density matrix:
   A->B: 0.941666;   B->A: 0.920843
   ||gamma^AB||*||gamma^BA||: 0.867126

 ------------------------------------------------------------------------------
 State A: ccsd: 0/A1
 State B: cvs_eomee_ccsd/rhfref/singlets: 1/B1
 Transition dipole moment (a.u.):
   A->B: 0.035870 (X 0.035870, Y 0.000000, Z 0.000000)
   B->A: 0.035844 (X 0.035844, Y 0.000000, Z 0.000000)
 Oscillator strength (a.u.): 0.005909
 Norm of one-particle transition density matrix:
   A->B: 0.934463;   B->A: 0.939243
   ||gamma^AB||*||gamma^BA||: 0.877687

 ------------------------------------------------------------------------------
 State A: ccsd: 0/A1
 State B: cvs_eomee_ccsd/rhfref/singlets: 2/B1
 Transition dipole moment (a.u.):
   A->B: 0.023996 (X 0.023996, Y 0.000000, Z 0.000000)
   B->A: 0.023754 (X 0.023754, Y 0.000000, Z 0.000000)
 Oscillator strength (a.u.): 0.002648
 Norm of one-particle transition density matrix:
   A->B: 0.946199;   B->A: 0.928095
   ||gamma^AB||*||gamma^BA||: 0.878163

 ------------------------------------------------------------------------------
 State A: ccsd: 0/A1
 State B: cvs_eomee_ccsd/rhfref/singlets: 3/B1
 Transition dipole moment (a.u.):
   A->B: 0.001904 (X -0.001904, Y 0.000000, Z 0.000000)
   B->A: 0.001856 (X -0.001856, Y 0.000000, Z 0.000000)
 Oscillator strength (a.u.): 0.000016
 Norm of one-particle transition density matrix:
   A->B: 0.905694;   B->A: 0.907487
   ||gamma^AB||*||gamma^BA||: 0.821905

 ------------------------------------------------------------------------------
 State A: ccsd: 0/A1
 State B: cvs_eomee_ccsd/rhfref/singlets: 4/B1
 Transition dipole moment (a.u.):
   A->B: 0.001689 (X 0.001689, Y 0.000000, Z 0.000000)
   B->A: 0.001661 (X 0.001661, Y 0.000000, Z 0.000000)
 Oscillator strength (a.u.): 0.000013
 Norm of one-particle transition density matrix:
   A->B: 0.943513;   B->A: 0.923691
   ||gamma^AB||*||gamma^BA||: 0.871515

 ------------------------------------------------------------------------------
 State A: ccsd: 0/A1
 State B: cvs_eomee_ccsd/rhfref/singlets: 5/B1
 Transition dipole moment (a.u.):
   A->B: 0.002060 (X -0.002060, Y 0.000000, Z 0.000000)
   B->A: 0.001925 (X -0.001925, Y 0.000000, Z 0.000000)
 Oscillator strength (a.u.): 0.000019
 Norm of one-particle transition density matrix:
   A->B: 0.942438;   B->A: 0.921823
   ||gamma^AB||*||gamma^BA||: 0.868761

 ------------------------------------------------------------------------------
 State A: ccsd: 0/A1
 State B: cvs_eomee_ccsd/rhfref/singlets: 6/B1
 Transition dipole moment (a.u.):
   A->B: 0.009903 (X 0.009903, Y 0.000000, Z 0.000000)
   B->A: 0.009699 (X 0.009699, Y 0.000000, Z 0.000000)
 Oscillator strength (a.u.): 0.000450
 Norm of one-particle transition density matrix:
   A->B: 0.942661;   B->A: 0.921986
   ||gamma^AB||*||gamma^BA||: 0.869120

 ------------------------------------------------------------------------------
 State A: ccsd: 0/A1
 State B: cvs_eomee_ccsd/rhfref/singlets: 1/B2
 Transition dipole moment (a.u.):
   A->B: 0.035182 (X 0.000000, Y 0.035182, Z 0.000000)
   B->A: 0.035155 (X 0.000000, Y 0.035155, Z 0.000000)
 Oscillator strength (a.u.): 0.005684
 Norm of one-particle transition density matrix:
   A->B: 0.934365;   B->A: 0.939168
   ||gamma^AB||*||gamma^BA||: 0.877525

 ------------------------------------------------------------------------------
 State A: ccsd: 0/A1
 State B: cvs_eomee_ccsd/rhfref/singlets: 2/B2
 Transition dipole moment (a.u.):
   A->B: 0.023393 (X 0.000000, Y -0.023393, Z 0.000000)
   B->A: 0.023188 (X 0.000000, Y -0.023188, Z 0.000000)
 Oscillator strength (a.u.): 0.002520
 Norm of one-particle transition density matrix:
   A->B: 0.946050;   B->A: 0.927959
   ||gamma^AB||*||gamma^BA||: 0.877895

 ------------------------------------------------------------------------------
 State A: ccsd: 0/A1
 State B: cvs_eomee_ccsd/rhfref/singlets: 3/B2
 Transition dipole moment (a.u.):
   A->B: 0.006192 (X 0.000000, Y -0.006192, Z 0.000000)
   B->A: 0.006087 (X 0.000000, Y -0.006087, Z 0.000000)
 Oscillator strength (a.u.): 0.000175
 Norm of one-particle transition density matrix:
   A->B: 0.907905;   B->A: 0.912102
   ||gamma^AB||*||gamma^BA||: 0.828102

 ------------------------------------------------------------------------------
 State A: ccsd: 0/A1
 State B: cvs_eomee_ccsd/rhfref/singlets: 4/B2
 Transition dipole moment (a.u.):
   A->B: 0.000766 (X 0.000000, Y 0.000766, Z 0.000000)
   B->A: 0.000679 (X 0.000000, Y 0.000679, Z 0.000000)
 Oscillator strength (a.u.): 0.000002
 Norm of one-particle transition density matrix:
   A->B: 0.942326;   B->A: 0.921732
   ||gamma^AB||*||gamma^BA||: 0.868572

 ------------------------------------------------------------------------------
 State A: ccsd: 0/A1
 State B: cvs_eomee_ccsd/rhfref/singlets: 5/B2
 Transition dipole moment (a.u.):
   A->B: 0.000660 (X 0.000000, Y -0.000660, Z 0.000000)
   B->A: 0.000689 (X 0.000000, Y -0.000689, Z 0.000000)
 Oscillator strength (a.u.): 0.000002
 Norm of one-particle transition density matrix:
   A->B: 0.942637;   B->A: 0.924062
   ||gamma^AB||*||gamma^BA||: 0.871055

 ------------------------------------------------------------------------------
 State A: ccsd: 0/A1
 State B: cvs_eomee_ccsd/rhfref/singlets: 6/B2
 Transition dipole moment (a.u.):
   A->B: 0.006859 (X 0.000000, Y -0.006859, Z 0.000000)
   B->A: 0.006769 (X 0.000000, Y -0.006769, Z 0.000000)
 Oscillator strength (a.u.): 0.000217
 Norm of one-particle transition density matrix:
   A->B: 0.942481;   B->A: 0.921894
   ||gamma^AB||*||gamma^BA||: 0.868867


 All requested transition properties have been computed

 Transition Properties:   CPU 165.96 s  wall 44.93 s

 Total ccman2 time:   CPU 136827.27 s  wall 24674.66 s


 --------------------------------------------------------------
             Orbital Energies (a.u.) and Symmetries
 --------------------------------------------------------------

 Alpha MOs, Restricted
 -- Occupied --                  
-490.03  -65.16  -58.52  -58.52  -58.52  -11.30  -11.26  -11.26
  1 A1    2 A1    3 A1    1 B2    1 B1    4 A1    2 B1    5 A1                 
-11.254 -11.254 -11.251  -9.841  -7.454  -7.445  -7.445  -3.193
  6 A1    3 B1    7 A1    8 A1    9 A1    4 B1    2 B2   10 A1                 
 -3.189  -3.189  -3.179  -3.179  -1.180  -1.076  -1.036  -0.977
  3 B2    5 B1   11 A1    1 A2   12 A1   13 A1    6 B1   14 A1                 
 -0.849  -0.820  -0.714  -0.648  -0.647  -0.608  -0.578  -0.535
  7 B1   15 A1   16 A1    8 B1   17 A1    9 B1   18 A1    4 B2                 
 -0.518  -0.496  -0.440  -0.417  -0.354  -0.335
 10 B1   19 A1    5 B2   11 B1    2 A2    6 B2                                 
 -- Virtual --                   
  0.013   0.020   0.020   0.026   0.029   0.030   0.037   0.040
 20 A1   12 B1   21 A1    7 B2   13 B1   22 A1   23 A1    8 B2                 
  0.043   0.047   0.048   0.054   0.055   0.059   0.063   0.065
  3 A2   14 B1   24 A1    9 B2    4 A2   25 A1   15 B1   26 A1                 
  0.067   0.067   0.069   0.069   0.076   0.082   0.087   0.091
 16 B1   10 B2   27 A1   11 B2   17 B1   28 A1   29 A1   18 B1                 
  0.100   0.101   0.101   0.119   0.123   0.140   0.156   0.165
 12 B2    5 A2   30 A1   19 B1   31 A1   32 A1   13 B2   20 B1                 
  0.174   0.177   0.179   0.196   0.198   0.203   0.207   0.214
 14 B2   33 A1    6 A2   34 A1   21 B1   35 A1   15 B2   36 A1                 
  0.223   0.225   0.229   0.229   0.231   0.241   0.245   0.247
 22 B1   16 B2   37 A1   23 B1    7 A2   38 A1   17 B2   24 B1                 
  0.252   0.254   0.263   0.278   0.289   0.293   0.314   0.337
 39 A1   25 B1   40 A1   41 A1   26 B1   27 B1   42 A1   28 B1                 
  0.342   0.353   0.377   0.413   0.416   0.433   0.442   0.487
 43 A1   18 B2   44 A1   45 A1   29 B1   30 B1   46 A1   47 A1                 
  0.494   0.511   0.512   0.606   0.615   0.619   0.645   0.647
 31 B1   32 B1   48 A1   49 A1   33 B1   19 B2   34 B1   50 A1                 
  0.716   0.729   0.736   0.737   0.741   0.747   0.766   0.774
 51 A1   35 B1   20 B2   36 B1   52 A1   21 B2    8 A2   53 A1                 
  0.787   0.787   0.805   0.824   0.829   0.866   0.888   0.897
  9 A2   37 B1   22 B2   54 A1   10 A2   23 B2   55 A1   56 A1                 
  0.924   0.925   0.935   0.939   0.960   0.985   1.012   1.031
 38 B1   24 B2   57 A1   39 B1   58 A1   59 A1   40 B1   60 A1                 
  1.059   1.069   1.097   1.098   1.112   1.126   1.177   1.203
 41 B1   61 A1   42 B1   62 A1   63 A1   43 B1   44 B1   25 B2                 
  1.203   1.231   1.286   1.293   1.308   1.345   1.374   1.472
 64 A1   11 A2   65 A1   45 B1   12 A2   26 B2   13 A2   66 A1                 
  1.526   1.614   1.725   1.776   1.785   1.817   1.823   1.831
 27 B2   67 A1   46 B1   68 A1   47 B1   69 A1   28 B2   14 A2                 
  1.881   1.905   1.907   1.947   1.990   2.006   2.042   2.102
 29 B2   70 A1   48 B1   71 A1   49 B1   30 B2   15 A2   50 B1                 
  2.147   2.217   2.218   2.219   2.235   2.248   2.272   2.320
 72 A1   51 B1   31 B2   16 A2   52 B1   73 A1   32 B2   74 A1                 
  2.345   2.352   2.366   2.375   2.443   2.594   2.614   2.645
 75 A1   53 B1   17 A2   33 B2   54 B1   34 B2   76 A1   18 A2                 
  2.676   2.742   2.796   2.796   2.849   2.929   2.972   2.991
 55 B1   77 A1   78 A1   56 B1   57 B1   79 A1   80 A1   81 A1                 
  3.009   3.022   3.031   3.039   3.069   3.161   3.186   3.193
 58 B1   82 A1   83 A1   59 B1   35 B2   84 A1   36 B2   60 B1                 
  3.193   3.280   3.286   3.319   3.472   3.530   3.563   3.756
 19 A2   37 B2   20 A2   61 B1   38 B2   85 A1   62 B1   63 B1                 
  3.780   3.899   3.921   4.018   4.139   4.383   4.438   4.501
 86 A1   64 B1   87 A1   88 A1   89 A1   65 B1   90 A1   91 A1                 
  4.515   4.558   4.609   4.638   4.789   4.960   5.114   5.261
 66 B1   21 A2   92 A1   39 B2   67 B1   93 A1   94 A1   68 B1                 
  5.439   5.446   5.759   5.778   6.183   7.389   8.253   8.346
 95 A1   69 B1   96 A1   70 B1   97 A1   98 A1   40 B2   71 B1                 
  8.445  20.615  20.685  20.706  20.824  20.851  21.124  49.058
 99 A1  100 A1  101 A1   72 B1  102 A1   73 B1  103 A1  104 A1                 
 80.185  80.258  80.280  80.379  80.404  80.610 241.920 242.011
105 A1  106 A1   74 B1  107 A1   75 B1  108 A1   41 B2   76 B1                 
242.125 322.027 322.095 322.116 322.200 322.221 322.388 485.333
109 A1  110 A1  111 A1   77 B1  112 A1   78 B1  113 A1  114 A1                 
*******1431.6581431.6781431.7481431.7671431.9061562.9251562.997
115 A1  116 A1   79 B1  117 A1   80 B1  118 A1   42 B2   81 B1                 
*******2536.8067647.8027647.8517647.9148749.8358749.8908749.907
119 A1  120 A1   43 B2   82 B1  121 A1  122 A1  123 A1   83 B1                 
*******8749.9808750.0919510.965************************
124 A1   84 B1  125 A1  126 A1  127 A1  128 A1  129 A1                         

 Beta MOs, Restricted
 -- Occupied --                  
-490.03  -65.16  -58.52  -58.52  -58.52  -11.30  -11.26  -11.26
  1 A1    2 A1    3 A1    1 B2    1 B1    4 A1    2 B1    5 A1                 
-11.254 -11.254 -11.251  -9.841  -7.454  -7.445  -7.445  -3.193
  6 A1    3 B1    7 A1    8 A1    9 A1    4 B1    2 B2   10 A1                 
 -3.189  -3.189  -3.179  -3.179  -1.180  -1.076  -1.036  -0.977
  3 B2    5 B1   11 A1    1 A2   12 A1   13 A1    6 B1   14 A1                 
 -0.849  -0.820  -0.714  -0.648  -0.647  -0.608  -0.578  -0.535
  7 B1   15 A1   16 A1    8 B1   17 A1    9 B1   18 A1    4 B2                 
 -0.518  -0.496  -0.440  -0.417  -0.354  -0.335
 10 B1   19 A1    5 B2   11 B1    2 A2    6 B2                                 
 -- Virtual --                   
  0.013   0.020   0.020   0.026   0.029   0.030   0.037   0.040
 20 A1   12 B1   21 A1    7 B2   13 B1   22 A1   23 A1    8 B2                 
  0.043   0.047   0.048   0.054   0.055   0.059   0.063   0.065
  3 A2   14 B1   24 A1    9 B2    4 A2   25 A1   15 B1   26 A1                 
  0.067   0.067   0.069   0.069   0.076   0.082   0.087   0.091
 16 B1   10 B2   27 A1   11 B2   17 B1   28 A1   29 A1   18 B1                 
  0.100   0.101   0.101   0.119   0.123   0.140   0.156   0.165
 12 B2    5 A2   30 A1   19 B1   31 A1   32 A1   13 B2   20 B1                 
  0.174   0.177   0.179   0.196   0.198   0.203   0.207   0.214
 14 B2   33 A1    6 A2   34 A1   21 B1   35 A1   15 B2   36 A1                 
  0.223   0.225   0.229   0.229   0.231   0.241   0.245   0.247
 22 B1   16 B2   37 A1   23 B1    7 A2   38 A1   17 B2   24 B1                 
  0.252   0.254   0.263   0.278   0.289   0.293   0.314   0.337
 39 A1   25 B1   40 A1   41 A1   26 B1   27 B1   42 A1   28 B1                 
  0.342   0.353   0.377   0.413   0.416   0.433   0.442   0.487
 43 A1   18 B2   44 A1   45 A1   29 B1   30 B1   46 A1   47 A1                 
  0.494   0.511   0.512   0.606   0.615   0.619   0.645   0.647
 31 B1   32 B1   48 A1   49 A1   33 B1   19 B2   34 B1   50 A1                 
  0.716   0.729   0.736   0.737   0.741   0.747   0.766   0.774
 51 A1   35 B1   20 B2   36 B1   52 A1   21 B2    8 A2   53 A1                 
  0.787   0.787   0.805   0.824   0.829   0.866   0.888   0.897
  9 A2   37 B1   22 B2   54 A1   10 A2   23 B2   55 A1   56 A1                 
  0.924   0.925   0.935   0.939   0.960   0.985   1.012   1.031
 38 B1   24 B2   57 A1   39 B1   58 A1   59 A1   40 B1   60 A1                 
  1.059   1.069   1.097   1.098   1.112   1.126   1.177   1.203
 41 B1   61 A1   42 B1   62 A1   63 A1   43 B1   44 B1   25 B2                 
  1.203   1.231   1.286   1.293   1.308   1.345   1.374   1.472
 64 A1   11 A2   65 A1   45 B1   12 A2   26 B2   13 A2   66 A1                 
  1.526   1.614   1.725   1.776   1.785   1.817   1.823   1.831
 27 B2   67 A1   46 B1   68 A1   47 B1   69 A1   28 B2   14 A2                 
  1.881   1.905   1.907   1.947   1.990   2.006   2.042   2.102
 29 B2   70 A1   48 B1   71 A1   49 B1   30 B2   15 A2   50 B1                 
  2.147   2.217   2.218   2.219   2.235   2.248   2.272   2.320
 72 A1   51 B1   31 B2   16 A2   52 B1   73 A1   32 B2   74 A1                 
  2.345   2.352   2.366   2.375   2.443   2.594   2.614   2.645
 75 A1   53 B1   17 A2   33 B2   54 B1   34 B2   76 A1   18 A2                 
  2.676   2.742   2.796   2.796   2.849   2.929   2.972   2.991
 55 B1   77 A1   78 A1   56 B1   57 B1   79 A1   80 A1   81 A1                 
  3.009   3.022   3.031   3.039   3.069   3.161   3.186   3.193
 58 B1   82 A1   83 A1   59 B1   35 B2   84 A1   36 B2   60 B1                 
  3.193   3.280   3.286   3.319   3.472   3.530   3.563   3.756
 19 A2   37 B2   20 A2   61 B1   38 B2   85 A1   62 B1   63 B1                 
  3.780   3.899   3.921   4.018   4.139   4.383   4.438   4.501
 86 A1   64 B1   87 A1   88 A1   89 A1   65 B1   90 A1   91 A1                 
  4.515   4.558   4.609   4.638   4.789   4.960   5.114   5.261
 66 B1   21 A2   92 A1   39 B2   67 B1   93 A1   94 A1   68 B1                 
  5.439   5.446   5.759   5.778   6.183   7.389   8.253   8.346
 95 A1   69 B1   96 A1   70 B1   97 A1   98 A1   40 B2   71 B1                 
  8.445  20.615  20.685  20.706  20.824  20.851  21.124  49.058
 99 A1  100 A1  101 A1   72 B1  102 A1   73 B1  103 A1  104 A1                 
 80.185  80.258  80.280  80.379  80.404  80.610 241.920 242.011
105 A1  106 A1   74 B1  107 A1   75 B1  108 A1   41 B2   76 B1                 
242.125 322.027 322.095 322.116 322.200 322.221 322.388 485.333
109 A1  110 A1  111 A1   77 B1  112 A1   78 B1  113 A1  114 A1                 
*******1431.6581431.6781431.7481431.7671431.9061562.9251562.997
115 A1  116 A1   79 B1  117 A1   80 B1  118 A1   42 B2   81 B1                 
*******2536.8067647.8027647.8517647.9148749.8358749.8908749.907
119 A1  120 A1   43 B2   82 B1  121 A1  122 A1  123 A1   83 B1                 
*******8749.9808750.0919510.965************************
124 A1   84 B1  125 A1  126 A1  127 A1  128 A1  129 A1                         
 --------------------------------------------------------------

          Ground-State Mulliken Net Atomic Charges

     Atom                 Charge (a.u.)
  ----------------------------------------
      1 H                     0.259405
      2 C                    -0.225780
      3 C                    -0.163514
      4 H                     0.227402
      5 C                    -0.415143
      6 H                     0.187833
      7 C                    -0.163514
      8 H                     0.227402
      9 C                    -0.225780
     10 H                     0.259405
     11 C                     0.384403
     12 Br                   -0.352119
  ----------------------------------------
  Sum of atomic charges =    -0.000000

 -----------------------------------------------------------------
                    Cartesian Multipole Moments
 -----------------------------------------------------------------
    Charge (ESU x 10^10)
                -0.0000
    Dipole Moment (Debye)
         X      -0.0000      Y       0.0000      Z      -2.0241
       Tot       2.0241
    Quadrupole Moments (Debye-Ang)
        XX     -48.3713     XY       0.0000     YY     -58.7595
        XZ      -0.0000     YZ       0.0000     ZZ     -49.5421
    Octopole Moments (Debye-Ang^2)
       XXX      -0.0000    XXY       0.0000    XYY      -0.0000
       YYY      -0.0000    XXZ      11.2092    XYZ      -0.0000
       YYZ      26.3121    XZZ      -0.0000    YZZ       0.0000
       ZZZ      41.1662
    Hexadecapole Moments (Debye-Ang^3)
      XXXX    -283.2331   XXXY       0.0000   XXYY     -72.3332
      XYYY       0.0000   YYYY     -72.6687   XXXZ       0.0000
      XXYZ      -0.0000   XYYZ      -0.0000   YYYZ      -0.0000
      XXZZ    -223.8733   XYZZ       0.0000   YYZZ    -222.8912
      XZZZ      -0.0000   YZZZ       0.0000   ZZZZ   -1014.6851
 -----------------------------------------------------------------
Archival summary:
1\1\node24\SP\ProcedureUnspecified\BasisUnspecified\r165\krylov\MonOct1506:55:042018MonOct1506:55:042018\0\\#,ProcedureUnspecified,BasisUnspecified,\\0,1\Br\C,1,1.884\C,2,1.3922,1,119.37\H,3,1.0802,2,120.072,1,0,0\C,2,1.3922,1,119.37,3,-180,0\H,5,1.0802,2,120.072,1,-0,0\C,3,1.39311,2,119.031,1,-180,0\H,7,1.08133,3,119.353,2,180,0\C,5,1.39311,2,119.031,1,180,0\H,9,1.08133,5,119.353,2,180,0\C,7,1.39319,3,120.463,2,0,0\H,11,1.08081,7,120.124,3,-180,0\\HF=-2802.5467\\@

 Total job time:  24722.10s(wall), 137023.06s(cpu) 
 Mon Oct 15 06:55:05 2018

        *************************************************************
        *                                                           *
        *  Thank you very much for using Q-Chem.  Have a nice day.  *
        *                                                           *
        *************************************************************


