Q-Chem Developer Version!
                  Welcome to Q-Chem
     A Quantum Leap Into The Future Of Chemistry


 Q-Chem 5.1, Q-Chem, Inc., Pleasanton, CA (2018)

 Yihan Shao,  Zhengting Gan,  E. Epifanovsky,  A. T. B. Gilbert,  M. Wormit,  
 J. Kussmann,  A. W. Lange,  A. Behn,  Jia Deng,  Xintian Feng,  D. Ghosh,  
 M. Goldey,  P. R. Horn,  L. D. Jacobson,  I. Kaliman,  T. Kus,  A. Landau,  
 Jie Liu,  E. I. Proynov,  R. M. Richard,  R. P. Steele,  E. J. Sundstrom,  
 H. L. Woodcock III,  P. M. Zimmerman,  D. Zuev,  B. Albrecht,  E. Alguire,  
 S. A. Baeppler,  D. Barton,  Z. Benda,  Y. A. Bernard,  E. J. Berquist,  
 K. B. Bravaya,  H. Burton,  D. Casanova,  Chun-Min Chang,  Yunqing Chen,  
 A. Chien,  K. D. Closser,  M. P. Coons,  S. Coriani,  S. Dasgupta,  
 A. L. Dempwolff,  M. Diedenhofen,  Hainam Do,  R. G. Edgar,  Po-Tung Fang,  
 S. Faraji,  S. Fatehi,  Qingguo Feng,  K. D. Fenk,  J. Fosso-Tande,  
 Qinghui Ge,  A. Ghysels,  G. Gidofalvi,  J. Gomes,  J. Gonthier,  A. Gunina,  
 D. Hait,  M. W. D. Hanson-Heine,  P. H. P. Harbach,  A. W. Hauser,  
 J. E. Herr,  E. G. Hohenstein,  Z. C. Holden,  Kerwin Hui,  B. C. Huynh,  
 T.-C. Jagau,  Hyunjun Ji,  B. Kaduk,  K. Khistyaev,  Jaehoon Kim,  
 P. Klunzinger,  K. Koh,  D. Kosenkov,  L. Koulias,  T. Kowalczyk,  
 C. M. Krauter,  A. Kunitsa,  Ka Un Lao,  A. Laurent,  K. V. Lawler,  
 Joonho Lee,  D. Lefrancois,  S. Lehtola,  D. S. Levine,  Yi-Pei Li,  
 You-Sheng Lin,  Fenglai Liu,  E. Livshits,  A. Luenser,  P. Manohar,  
 E. Mansoor,  S. F. Manzer,  Shan-Ping Mao,  Yuezhi Mao,  N. Mardirossian,  
 A. V. Marenich,  T. Markovich,  L. A. Martinez-Martinez,  S. A. Maurer,  
 N. J. Mayhall,  S. C. McKenzie,  J.-M. Mewes,  A. F. Morrison,  
 J. W. Mullinax,  K. Nanda,  T. S. Nguyen-Beck,  R. Olivares-Amaya,  
 J. A. Parkhill,  T. M. Perrine,  F. Plasser,  P. Pokhilko,  S. Prager,  
 A. Prociuk,  E. Ramos,  D. R. Rehn,  F. Rob,  M. Schneider,  N. Sergueev,  
 S. M. Sharada,  S. Sharma,  D. W. Small,  T. Stauch,  T. Stein,  
 Yu-Chuan Su,  A. J. W. Thom,  A. Tkatchenko,  T. Tsuchimochi,  N. M. Tubman,  
 L. Vogt,  M. L. Vidal,  O. Vydrov,  M. A. Watson,  J. Wenzel,  
 M. de Wergifosse,  T. A. Wesolowski,  A. White,  J. Witte,  A. Yamada,  
 Jun Yang,  K. Yao,  S. Yeganeh,  S. R. Yost,  Zhi-Qiang You,  A. Zech,  
 Igor Ying Zhang,  Xing Zhang,  Yan Zhao,  Ying Zhu,  B. R. Brooks,  
 G. K. L. Chan,  C. J. Cramer,  M. S. Gordon,  W. J. Hehre,  A. Klamt,  
 M. W. Schmidt,  C. D. Sherrill,  D. G. Truhlar,  A. Aspuru-Guzik,  R. Baer,  
 A. T. Bell,  N. A. Besley,  Jeng-Da Chai,  A. E. DePrince, III,  
 R. A. DiStasio Jr.,  A. Dreuw,  B. D. Dunietz,  T. R. Furlani,  
 Chao-Ping Hsu,  Yousung Jung,  Jing Kong,  D. S. Lambrecht,  WanZhen Liang,  
 C. Ochsenfeld,  V. A. Rassolov,  L. V. Slipchenko,  J. E. Subotnik,  
 T. Van Voorhis,  J. M. Herbert,  A. I. Krylov,  P. M. W. Gill,  M. Head-Gordon

 Contributors to earlier versions of Q-Chem not listed above: 
 R. D. Adamson,  B. Austin,  J. Baker,  G. J. O. Beran,  K. Brandhorst,  
 S. T. Brown,  E. F. C. Byrd,  A. K. Chakraborty,  C.-L. Cheng,  
 Siu Hung Chien,  D. M. Chipman,  D. L. Crittenden,  H. Dachsel,  
 R. J. Doerksen,  A. D. Dutoi,  L. Fusti-Molnar,  W. A. Goddard III,  
 A. Golubeva-Zadorozhnaya,  S. R. Gwaltney,  G. Hawkins,  A. Heyden,  
 S. Hirata,  G. Kedziora,  F. J. Keil,  C. Kelley,  Jihan Kim,  R. A. King,  
 R. Z. Khaliullin,  P. P. Korambath,  W. Kurlancheek,  A. M. Lee,  M. S. Lee,  
 S. V. Levchenko,  Ching Yeh Lin,  D. Liotard,  R. C. Lochan,  I. Lotan,  
 P. E. Maslen,  N. Nair,  D. P. O'Neill,  D. Neuhauser,  E. Neuscamman,  
 C. M. Oana,  R. Olson,  B. Peters,  R. Peverati,  P. A. Pieniazek,  
 Y. M. Rhee,  J. Ritchie,  M. A. Rohrdanz,  E. Rosta,  N. J. Russ,  
 H. F. Schaefer III,  N. E. Schultz,  N. Shenvi,  A. C. Simmonett,  A. Sodt,  
 D. Stuck,  K. S. Thanthiriwatte,  V. Vanovschi,  Tao Wang,  A. Warshel,  
 C. F. Williams,  Q. Wu,  X. Xu,  W. Zhang

 Please cite Q-Chem as follows:
 Y. Shao et al., Mol. Phys. 113, 184-215 (2015)
 DOI: 10.1080/00268976.2014.952696

 Q-Chem 5.1.1 for Intel X86 EM64T Linux

 Parts of Q-Chem use Armadillo 8.300.2 (Tropical Shenanigans).
 http://arma.sourceforge.net/

 Q-Chem begins on Mon Oct 22 11:15:31 2018  

node24
Host: 0

     Scratch files written to /scratch/krylov/qchem2900//
Core orbitals will be frozen
Input Ideriv = 1
Curr. Ideriv = -1
Max.  Ideriv = 1

Checking the input file for inconsistencies... 	...done.

--------------------------------------------------------------
User input:
--------------------------------------------------------------
$comment
Optimized Br-Bz, EOM-IP calculation at the  opt A2 geom (EOM-IP-CCSD/cc-pVTZ)
$end

$molecule
0 1
H        -2.1384774911    0.0000000000   -0.1696452001
C        -1.1899301707    0.0000000000   -0.6888298752
C        -1.1860257460    0.0000000000   -2.1332324269
H        -2.1391940670    0.0000000000   -2.6441137630
C         0.0000000000    0.0000000000   -2.8493278239
H         0.0000000000    0.0000000000   -3.9278124125
C         1.1860257460    0.0000000000   -2.1332324269
H         2.1391940670    0.0000000000   -2.6441137630
C         1.1899301707    0.0000000000   -0.6888298752
H         2.1384774911    0.0000000000   -0.1696452001
C         0.0000000000    0.0000000000    0.0269576114
Br        0.0000000000    0.0000000000    1.8900817152
$end

$rem
   JOB_TYPE  =  SP
   BASIS  =  cc-pVTZ
   METHOD  =  EOM-CCSD
   IP_STATES = [2,2,2,2]
   EOM_DAVIDSON_MAXVECTORS = 120
   CC_MEMORY = 80000
   cc_trans_prop = 1
$end
--------------------------------------------------------------
 ----------------------------------------------------------------
             Standard Nuclear Orientation (Angstroms)
    I     Atom           X                Y                Z
 ----------------------------------------------------------------
    1      H      -2.1384774911    -0.0000000000    -0.2459420526
    2      C      -1.1899301707     0.0000000000    -0.7651267277
    3      C      -1.1860257460     0.0000000000    -2.2095292794
    4      H      -2.1391940670     0.0000000000    -2.7204106155
    5      C      -0.0000000000     0.0000000000    -2.9256246764
    6      H      -0.0000000000     0.0000000000    -4.0041092650
    7      C       1.1860257460     0.0000000000    -2.2095292794
    8      H       2.1391940670     0.0000000000    -2.7204106155
    9      C       1.1899301707     0.0000000000    -0.7651267277
   10      H       2.1384774911     0.0000000000    -0.2459420526
   11      C       0.0000000000     0.0000000000    -0.0493392411
   12      Br      0.0000000000    -0.0000000000     1.8137848627
 ----------------------------------------------------------------
 Molecular Point Group                 C2v   NOp =  4
 Largest Abelian Subgroup              C2v   NOp =  4
 Nuclear Repulsion Energy =   430.3227873651 hartrees
 There are       38 alpha and       38 beta electrons
 Requested basis set is cc-pVTZ
 There are 105 shells and 293 basis functions
MEM_TOTAL is adjusted to CC_MEMORY + MEM_STATIC!
 Total memory of 80192MB is distributed as follows: 
   QALLOC including MEM_STATIC uses 192MB
   MEM_STATIC is set to 192MB
   CCMAN JOB total memory use is  80000MB
 Warning: actual memory use might exceed 80192MB

 Total QAlloc Memory Limit    192 MB
 Mega-Array Size       188 MB
 MEM_STATIC part       192 MB

                       Distance Matrix (Angstroms)
             H (  1)   C (  2)   C (  3)   H (  4)   C (  5)   H (  6)
   C (  2)  1.081339
   C (  3)  2.182393  1.444408
   H (  4)  2.474469  2.173531  1.081448
   C (  5)  3.428379  2.466513  1.385442  2.149015
   H (  6)  4.323992  3.450644  2.151087  2.494801  1.078485
   C (  7)  3.861087  2.780551  2.372051  3.364236  1.385442  2.151087
   H (  8)  4.941808  3.860855  3.364236  4.278388  2.149015  2.494801
   C (  9)  3.368657  2.379860  2.780551  3.860855  2.466513  3.450644
   H ( 10)  4.276955  3.368657  3.861087  4.941808  3.428379  4.323992
   C ( 11)  2.147496  1.388627  2.464362  3.422101  2.876285  3.954770
   Br( 12)  2.969101  2.840197  4.194486  5.013490  4.739410  5.817894
             C (  7)   H (  8)   C (  9)   H ( 10)   C ( 11)
   H (  8)  1.081448
   C (  9)  1.444408  2.173531
   H ( 10)  2.182393  2.474469  1.081339
   C ( 11)  2.464362  3.422101  1.388627  2.147496
   Br( 12)  4.194486  5.013490  2.840197  2.969101  1.863124

 A cutoff of  1.0D-14 yielded   5214 shell pairs
 There are     41060 function pairs (     53569 Cartesian)

 -------------------------------------------------------
 OpenMP Integral Computing Module                       
 Release: version 1.0, May 2013, Q-Chem Inc. Pittsburgh 
 -------------------------------------------------------
 Integral Job Info:
 Integral job number is                      11
 Integral operator is                         1
 short-range coefficients                     0
 long-range coefficients              100000000
 Omega coefficients                           0
 if combine SR and LR in K                    0
 Integral screening is                        0
 Integral computing path is                   2
 max size of driver memory is            800000
 size of driver memory is                776718
 size of scratch memory is             26991800
 max col of scratch BK array              10000
 max len of scratch array in speh3          662
 max len of scratch index in speh4           32
 max int batch size is                      520
 min int batch size is                       52
 fixed nKL is                                 4
 max L of basis functions is                  3
 order of int derivative is                   0
 number of shells is                        105
 number of basis is                         334
 number of cartesian basis is               334
 number of contracted shell pairs          5214
 number of primitive shell pairs          24533
 maxK2 (contraction) of shell pair          225
 max number of K2 of shell pair               1
 max number of CS2 of shell pair            621
 max number of PS2 of shell pair           2250
 mem total for path MDJ                  647656
 -------------------------------------------------------
 Smallest overlap matrix eigenvalue = 3.67E-05

 Scale SEOQF with 1.000000e-01/1.000000e+00/1.000000e-01

 Standard Electronic Orientation quadrupole field applied
 Nucleus-field energy     =    -0.0000000263 hartrees
 Guess from superposition of atomic densities
 Warning:  Energy on first SCF cycle will be non-variational
 SAD guess density has 76.000000 electrons

 -----------------------------------------------------------------------
  General SCF calculation program by
  Eric Jon Sundstrom, Paul Horn, Yuezhi Mao, Dmitri Zuev, Alec White,
  David Stuck, Shaama M.S., Shane Yost, Joonho Lee, David Small,
  Daniel Levine, Susi Lehtola, Hugh Burton, Evgeny Epifanovsky
 -----------------------------------------------------------------------
 Hartree-Fock
 using 8 threads for integral computing
 -------------------------------------------------------
 OpenMP Integral computing Module                
 Release: version 2.0, May 2017, Q-Chem Inc. Pleasanton 
 -------------------------------------------------------
 A restricted SCF calculation will be
 performed using DIIS
 SCF converges when DIIS error is below 1.0e-08
 ---------------------------------------
  Cycle       Energy         DIIS error
 ---------------------------------------
    1   -2805.2533300629      3.19e-02  
    2   -2802.5691043180      2.22e-03  
    3   -2802.6359414404      9.98e-04  
    4   -2802.6455715955      4.75e-04  
    5   -2802.6486013428      8.44e-05  
    6   -2802.6487062182      2.60e-05  
    7   -2802.6487228532      9.06e-06  
    8   -2802.6487258248      3.89e-06  
    9   -2802.6487264116      1.55e-06  
   10   -2802.6487265035      7.36e-07  
   11   -2802.6487265423      2.97e-07  
   12   -2802.6487265470      8.34e-08  
   13   -2802.6487265473      1.68e-08  
   14   -2802.6487265472      4.69e-09  Convergence criterion met
 ---------------------------------------
 SCF time:   CPU 1483.26s  wall 187.00s 
 SCF   energy in the final basis set =    -2802.6487265472
 Total energy in the final basis set =    -2802.6487265472


 ------------------------------------------------------------------------------

   CCMAN2: suite of methods based on coupled cluster
           and equation of motion theories.

   Components:
   * libvmm-1.3-trunk
     by Evgeny Epifanovsky, Ilya Kaliman.
   * libtensor-2.5-trunk
     by Evgeny Epifanovsky, Michael Wormit, Dmitry Zuev, Sam Manzer, 
        Ilya Kaliman.
   * libcc-2.5-trunk
     by Evgeny Epifanovsky, Arik Landau, Tomasz Kus, Kirill Khistyaev, 
        Dmitry Zuev, Prashant Manohar, Xintian Feng, Anna Krylov, 
        Matthew Goldey, Alec White, Thomas Jagau, Kaushik Nanda, 
        Anastasia Gunina, Alexander Kunitsa, Joonho Lee.

   CCMAN original authors:
   Anna I. Krylov, C. David Sherrill, Steven R. Gwaltney,
   Edward F. C. Byrd (2000)
   Sergey V. Levchenko, Lyudmila V. Slipchenko, Tao Wang,
   Ana-Maria C. Cristian (2003)
   Piotr A. Pieniazek, C. Melania Oana, Evgeny Epifanovsky (2007)
   Prashant Manohar (2009)

 ------------------------------------------------------------------------------


 Allocating and initializing 80000MB of RAM...
 Calculation will run on 8 cores.


 Alpha MOs, Restricted
 -- Occupied --                  
-490.03  -65.17  -58.52  -58.52  -58.52  -11.30  -11.26  -11.26
  1 A1    2 A1    3 A1    1 B2    1 B1    4 A1    2 B1    5 A1                 
-11.254 -11.253 -11.246  -9.840  -7.452  -7.445  -7.445  -3.196
  6 A1    3 B1    7 A1    8 A1    9 A1    2 B2    4 B1   10 A1                 
 -3.192  -3.192  -3.183  -3.183  -1.169  -1.079  -1.014  -0.980
  3 B2    5 B1    1 A2   11 A1   12 A1   13 A1    6 B1   14 A1                 
 -0.847  -0.810  -0.707  -0.646  -0.638  -0.587  -0.584  -0.529
  7 B1   15 A1   16 A1   17 A1    8 B1    9 B1   18 A1    4 B2                 
 -0.517  -0.494  -0.442  -0.419  -0.339  -0.337
 10 B1   19 A1    5 B2   11 B1    6 B2    2 A2                                 
 -- Virtual --                   
  0.105   0.115   0.135   0.163   0.166   0.179   0.204   0.206
  3 A2    7 B2   20 A1   21 A1   12 B1   22 A1   23 A1   13 B1                 
  0.300   0.314   0.321   0.371   0.372   0.391   0.393   0.403
  8 B2   24 A1   14 B1   15 B1   25 A1   26 A1    9 B2   16 B1                 
  0.410   0.432   0.459   0.460   0.476   0.477   0.494   0.512
 27 A1   10 B2   17 B1    4 A2   11 B2   28 A1   29 A1   18 B1                 
  0.517   0.543   0.557   0.563   0.568   0.579   0.581   0.592
  5 A2   30 A1   31 A1   19 B1   12 B2   32 A1   13 B2   20 B1                 
  0.594   0.613   0.637   0.640   0.663   0.669   0.678   0.707
  6 A2   33 A1   21 B1   34 A1   14 B2   22 B1   35 A1   23 B1                 
  0.719   0.744   0.756   0.786   0.791   0.831   0.854   0.869
 36 A1   15 B2   37 A1   24 B1   38 A1    7 A2    8 A2   25 B1                 
  0.898   0.904   0.923   0.941   0.950   0.975   0.982   1.022
 16 B2   39 A1   26 B1   40 A1    9 A2   27 B1   41 A1   28 B1                 
  1.043   1.047   1.069   1.087   1.121   1.158   1.188   1.203
 17 B2   42 A1   43 A1   29 B1   44 A1   18 B2   10 A2   19 B2                 
  1.232   1.236   1.245   1.285   1.285   1.320   1.357   1.365
 30 B1   45 A1   20 B2   11 A2   46 A1   47 A1   31 B1   48 A1                 
  1.379   1.424   1.463   1.466   1.478   1.496   1.500   1.508
 32 B1   21 B2   49 A1   12 A2   33 B1   34 B1   35 B1   22 B2                 
  1.539   1.561   1.578   1.610   1.612   1.640   1.683   1.695
 50 A1   36 B1   13 A2   51 A1   37 B1   52 A1   53 A1   23 B2                 
  1.708   1.712   1.737   1.743   1.776   1.851   1.864   1.872
 14 A2   38 B1   54 A1   39 B1   24 B2   55 A1   40 B1   56 A1                 
  1.945   1.964   2.016   2.062   2.087   2.087   2.097   2.133
 15 A2   25 B2   57 A1   16 A2   58 A1   26 B2   41 B1   42 B1                 
  2.156   2.191   2.226   2.249   2.286   2.296   2.326   2.356
 59 A1   60 A1   43 B1   27 B2   61 A1   44 B1   28 B2   62 A1                 
  2.400   2.440   2.441   2.460   2.516   2.532   2.538   2.585
 45 B1   63 A1   17 A2   29 B2   46 B1   18 A2   30 B2   64 A1                 
  2.624   2.650   2.655   2.678   2.728   2.765   2.783   2.799
 19 A2   47 B1   65 A1   66 A1   48 B1   67 A1   49 B1   68 A1                 
  2.805   2.819   2.904   2.937   2.955   2.975   2.986   2.995
 31 B2   32 B2   50 B1   20 A2   33 B2   51 B1   69 A1   34 B2                 
  3.009   3.036   3.040   3.048   3.062   3.114   3.127   3.129
 35 B2   52 B1   21 A2   70 A1   22 A2   71 A1   53 B1   36 B2                 
  3.156   3.208   3.228   3.249   3.258   3.288   3.300   3.329
 72 A1   37 B2   23 A2   38 B2   73 A1   54 B1   74 A1   75 A1                 
  3.333   3.367   3.369   3.374   3.391   3.410   3.421   3.422
 55 B1   24 A2   56 B1   76 A1   77 A1   57 B1   78 A1   58 B1                 
  3.436   3.441   3.444   3.458   3.477   3.516   3.570   3.605
 25 A2   39 B2   79 A1   26 A2   40 B2   59 B1   80 A1   81 A1                 
  3.618   3.624   3.649   3.667   3.675   3.680   3.718   3.727
 27 A2   41 B2   42 B2   28 A2   60 B1   61 B1   62 B1   43 B2                 
  3.743   3.782   3.881   3.910   3.938   3.942   3.948   3.977
 82 A1   29 A2   83 A1   84 A1   44 B2   63 B1   30 A2   85 A1                 
  4.052   4.060   4.070   4.077   4.104   4.119   4.125   4.127
 45 B2   31 A2   64 B1   86 A1   65 B1   87 A1   66 B1   46 B2                 
  4.133   4.170   4.185   4.198   4.219   4.273   4.339   4.365
 32 A2   47 B2   88 A1   33 A2   67 B1   89 A1   68 B1   34 A2                 
  4.378   4.425   4.450   4.455   4.474   4.481   4.492   4.522
 48 B2   90 A1   69 B1   91 A1   49 B2   70 B1   92 A1   71 B1                 
  4.549   4.582   4.626   4.632   4.640   4.641   4.657   4.676
 93 A1   35 A2   50 B2   72 B1   51 B2   36 A2   94 A1   95 A1                 
  4.678   4.746   4.821   4.852   4.973   5.003   5.004   5.032
 73 B1   96 A1   97 A1   74 B1   98 A1   99 A1   52 B2   53 B2                 
  5.057   5.082   5.103   5.113   5.174   5.226   5.283   5.319
 75 B1   37 A2   76 B1   38 A2  100 A1   54 B2   77 B1  101 A1                 
  5.342   5.369   5.428   5.459   5.506   5.548   5.683   5.839
 39 A2   78 B1  102 A1  103 A1   79 B1   80 B1   55 B2  104 A1                 
  5.855   5.964   6.065   6.173   6.254   6.351   6.443   6.668
 81 B1  105 A1  106 A1   82 B1   83 B1   84 B1  107 A1  108 A1                 
  7.067   9.011  12.132  13.085  13.272  13.390  15.714
 85 B1  109 A1  110 A1   86 B1   87 B1  111 A1  112 A1                         

 Beta MOs, Restricted
 -- Occupied --                  
-490.03  -65.17  -58.52  -58.52  -58.52  -11.30  -11.26  -11.26
  1 A1    2 A1    3 A1    1 B2    1 B1    4 A1    2 B1    5 A1                 
-11.254 -11.253 -11.246  -9.840  -7.452  -7.445  -7.445  -3.196
  6 A1    3 B1    7 A1    8 A1    9 A1    2 B2    4 B1   10 A1                 
 -3.192  -3.192  -3.183  -3.183  -1.169  -1.079  -1.014  -0.980
  3 B2    5 B1    1 A2   11 A1   12 A1   13 A1    6 B1   14 A1                 
 -0.847  -0.810  -0.707  -0.646  -0.638  -0.587  -0.584  -0.529
  7 B1   15 A1   16 A1   17 A1    8 B1    9 B1   18 A1    4 B2                 
 -0.517  -0.494  -0.442  -0.419  -0.339  -0.337
 10 B1   19 A1    5 B2   11 B1    6 B2    2 A2                                 
 -- Virtual --                   
  0.105   0.115   0.135   0.163   0.166   0.179   0.204   0.206
  3 A2    7 B2   20 A1   21 A1   12 B1   22 A1   23 A1   13 B1                 
  0.300   0.314   0.321   0.371   0.372   0.391   0.393   0.403
  8 B2   24 A1   14 B1   15 B1   25 A1   26 A1    9 B2   16 B1                 
  0.410   0.432   0.459   0.460   0.476   0.477   0.494   0.512
 27 A1   10 B2   17 B1    4 A2   11 B2   28 A1   29 A1   18 B1                 
  0.517   0.543   0.557   0.563   0.568   0.579   0.581   0.592
  5 A2   30 A1   31 A1   19 B1   12 B2   32 A1   13 B2   20 B1                 
  0.594   0.613   0.637   0.640   0.663   0.669   0.678   0.707
  6 A2   33 A1   21 B1   34 A1   14 B2   22 B1   35 A1   23 B1                 
  0.719   0.744   0.756   0.786   0.791   0.831   0.854   0.869
 36 A1   15 B2   37 A1   24 B1   38 A1    7 A2    8 A2   25 B1                 
  0.898   0.904   0.923   0.941   0.950   0.975   0.982   1.022
 16 B2   39 A1   26 B1   40 A1    9 A2   27 B1   41 A1   28 B1                 
  1.043   1.047   1.069   1.087   1.121   1.158   1.188   1.203
 17 B2   42 A1   43 A1   29 B1   44 A1   18 B2   10 A2   19 B2                 
  1.232   1.236   1.245   1.285   1.285   1.320   1.357   1.365
 30 B1   45 A1   20 B2   11 A2   46 A1   47 A1   31 B1   48 A1                 
  1.379   1.424   1.463   1.466   1.478   1.496   1.500   1.508
 32 B1   21 B2   49 A1   12 A2   33 B1   34 B1   35 B1   22 B2                 
  1.539   1.561   1.578   1.610   1.612   1.640   1.683   1.695
 50 A1   36 B1   13 A2   51 A1   37 B1   52 A1   53 A1   23 B2                 
  1.708   1.712   1.737   1.743   1.776   1.851   1.864   1.872
 14 A2   38 B1   54 A1   39 B1   24 B2   55 A1   40 B1   56 A1                 
  1.945   1.964   2.016   2.062   2.087   2.087   2.097   2.133
 15 A2   25 B2   57 A1   16 A2   58 A1   26 B2   41 B1   42 B1                 
  2.156   2.191   2.226   2.249   2.286   2.296   2.326   2.356
 59 A1   60 A1   43 B1   27 B2   61 A1   44 B1   28 B2   62 A1                 
  2.400   2.440   2.441   2.460   2.516   2.532   2.538   2.585
 45 B1   63 A1   17 A2   29 B2   46 B1   18 A2   30 B2   64 A1                 
  2.624   2.650   2.655   2.678   2.728   2.765   2.783   2.799
 19 A2   47 B1   65 A1   66 A1   48 B1   67 A1   49 B1   68 A1                 
  2.805   2.819   2.904   2.937   2.955   2.975   2.986   2.995
 31 B2   32 B2   50 B1   20 A2   33 B2   51 B1   69 A1   34 B2                 
  3.009   3.036   3.040   3.048   3.062   3.114   3.127   3.129
 35 B2   52 B1   21 A2   70 A1   22 A2   71 A1   53 B1   36 B2                 
  3.156   3.208   3.228   3.249   3.258   3.288   3.300   3.329
 72 A1   37 B2   23 A2   38 B2   73 A1   54 B1   74 A1   75 A1                 
  3.333   3.367   3.369   3.374   3.391   3.410   3.421   3.422
 55 B1   24 A2   56 B1   76 A1   77 A1   57 B1   78 A1   58 B1                 
  3.436   3.441   3.444   3.458   3.477   3.516   3.570   3.605
 25 A2   39 B2   79 A1   26 A2   40 B2   59 B1   80 A1   81 A1                 
  3.618   3.624   3.649   3.667   3.675   3.680   3.718   3.727
 27 A2   41 B2   42 B2   28 A2   60 B1   61 B1   62 B1   43 B2                 
  3.743   3.782   3.881   3.910   3.938   3.942   3.948   3.977
 82 A1   29 A2   83 A1   84 A1   44 B2   63 B1   30 A2   85 A1                 
  4.052   4.060   4.070   4.077   4.104   4.119   4.125   4.127
 45 B2   31 A2   64 B1   86 A1   65 B1   87 A1   66 B1   46 B2                 
  4.133   4.170   4.185   4.198   4.219   4.273   4.339   4.365
 32 A2   47 B2   88 A1   33 A2   67 B1   89 A1   68 B1   34 A2                 
  4.378   4.425   4.450   4.455   4.474   4.481   4.492   4.522
 48 B2   90 A1   69 B1   91 A1   49 B2   70 B1   92 A1   71 B1                 
  4.549   4.582   4.626   4.632   4.640   4.641   4.657   4.676
 93 A1   35 A2   50 B2   72 B1   51 B2   36 A2   94 A1   95 A1                 
  4.678   4.746   4.821   4.852   4.973   5.003   5.004   5.032
 73 B1   96 A1   97 A1   74 B1   98 A1   99 A1   52 B2   53 B2                 
  5.057   5.082   5.103   5.113   5.174   5.226   5.283   5.319
 75 B1   37 A2   76 B1   38 A2  100 A1   54 B2   77 B1  101 A1                 
  5.342   5.369   5.428   5.459   5.506   5.548   5.683   5.839
 39 A2   78 B1  102 A1  103 A1   79 B1   80 B1   55 B2  104 A1                 
  5.855   5.964   6.065   6.173   6.254   6.351   6.443   6.668
 81 B1  105 A1  106 A1   82 B1   83 B1   84 B1  107 A1  108 A1                 
  7.067   9.011  12.132  13.085  13.272  13.390  15.714
 85 B1  109 A1  110 A1   86 B1   87 B1  111 A1  112 A1                         

 Occupation and symmetry of molecular orbitals

 Point group: C2v (4 irreducible representations).

                           A1   A2   B1   B2    All 
 ----------------------------------------------------
 All molecular orbitals:
  - Alpha                  112  39   87   55    293 
  - Beta                   112  39   87   55    293 
 ----------------------------------------------------
 Alpha orbitals:
  - Frozen occupied        9    0    4    2     15  
  - Active occupied        10   2    7    4     23  
  - Active virtual         93   37   76   49    255 
  - Frozen virtual         0    0    0    0     0   
 ----------------------------------------------------
 Beta orbitals:
  - Frozen occupied        9    0    4    2     15  
  - Active occupied        10   2    7    4     23  
  - Active virtual         93   37   76   49    255 
  - Frozen virtual         0    0    0    0     0   
 ----------------------------------------------------

 Import integrals:   CPU 0.00 s  wall 0.00 s

 Import integrals:   CPU 1004.02 s  wall 139.91 s

 MP2 amplitudes:   CPU 7.15 s  wall 5.95 s

Running a double precision version
           CCSD T amplitudes will be solved using DIIS.

           Start     Size      MaxIter   EConv     TConv     
           3         7         100       1.00e-06  1.00e-04  
 ------------------------------------------------------------------------------
           Energy (a.u.)   Ediff      Tdiff       Comment
 ------------------------------------------------------------------------------
         -2803.82299204                           
     1   -2803.80751075   1.55e-02   1.05e+00     
     2   -2803.84363094   3.61e-02   1.47e-01     
     3   -2803.84187596   1.75e-03   5.22e-02     
     4   -2803.84492738   3.05e-03   1.50e-02     Switched to DIIS steps.
     5   -2803.84588186   9.54e-04   1.15e-02     
     6   -2803.84591426   3.24e-05   2.17e-03     
     7   -2803.84589956   1.47e-05   1.08e-03     
     8   -2803.84589901   5.44e-07   2.12e-04     
     9   -2803.84589919   1.77e-07   7.85e-05     
 ------------------------------------------------------------------------------
         -2803.84589919                           CCSD T converged.

End of double precision
 SCF energy                 = -2802.64872655
 MP2 energy                 = -2803.82299204
 CCSD correlation energy     =    -1.19717264
 CCSD total energy           = -2803.84589919

 CCSD  T1^2 = 0.0082  T2^2 = 0.4337  Leading amplitudes:

 Amplitude    Orbitals with energies
 -0.0214       2 (A2) A                  ->    4 (A2) A                   
              -0.3374                          0.4597                     
 -0.0214       2 (A2) B                  ->    4 (A2) B                   
              -0.3374                          0.4597                     
  0.0175       6 (B2) A                  ->    11 (B2) A                  
              -0.3392                          0.4759                     
  0.0175       6 (B2) B                  ->    11 (B2) B                  
              -0.3392                          0.4759                     

 Amplitude    Orbitals with energies
 -0.0880       2 (A2) A      2 (A2) B    ->    3 (A2) A      3 (A2) B     
              -0.3374       -0.3374            0.1048        0.1048       
  0.0880       2 (A2) A      2 (A2) B    ->    3 (A2) B      3 (A2) A     
              -0.3374       -0.3374            0.1048        0.1048       
  0.0880       2 (A2) B      2 (A2) A    ->    3 (A2) A      3 (A2) B     
              -0.3374       -0.3374            0.1048        0.1048       
 -0.0880       2 (A2) B      2 (A2) A    ->    3 (A2) B      3 (A2) A     
              -0.3374       -0.3374            0.1048        0.1048       

 Computing CCSD intemediates for later calculations in double precision
 Finished.

Running a double precision version
           CCSD Lambda amplitudes will be solved using DIIS.
           Start     Size      MaxIter   EConv     LConv     
           3         7         100       1.00e-06  1.00e-04  
 ------------------------------------------------------------------------------
            Enorm      Ldiff       Comment
 ------------------------------------------------------------------------------
     1     6.43e-02   5.27e-02     
     2     1.20e-02   9.93e-05     
     3     4.13e-03   2.10e-03     
     4     1.63e-03   2.12e-04     Switched to DIIS steps.
     5     5.07e-04   3.28e-04     
     6     2.31e-04   7.30e-05     
     7     6.70e-05   2.53e-05     
     8     2.79e-05   4.60e-06     
     9     9.48e-06   8.18e-07     
    10     3.84e-06   1.26e-07     
    11     1.55e-06   1.26e-07     
    12     5.13e-07   9.91e-08     
 ------------------------------------------------------------------------------
                                   CCSD Lambda converged.

 CCSD calculation:   CPU 2797.76 s  wall 405.75 s

        Solving for EOMIP-CCSD A1 transitions.

Running a double precision version
      EOMIP-CCSD/MP2 right amplitudes will be solved using Davidson.
        Amplitudes will be solved using standard  algorithm.
     Hard-coded thresholds: 
     LinDepThresh=1.00e-15  NormThresh=1.00e-06  ReorthogonThresh=1.00e-02

      Roots     MaxVec    MaxIter   Precond   Conv      Shift    
      2         120       60        1         1.00e-05  0.00e+00  
 ------------------------------------------------------------------------------
      Iter ConvRoots NVecs ResNorm Current eigenvalues (eV)
 ------------------------------------------------------------------------------
      0    0      2     1.33e-01   15.3066   17.6478   
      1    0      4     5.62e-02   13.0075   15.3819   
      2    0      6     1.27e-03   12.3467   14.6031   
      3    0      8     1.80e-04   12.3236   14.5655   
      4    0      10    4.05e-05   12.3225   14.5610   
      5    1      12    1.36e-05   12.3216*  14.5577   
      6    1      13    7.81e-06   12.3216*  14.5570   
      7    2      14    1.82e-06   12.3217*  14.5570*  

     Davidson procedure converged

 EOMIP transition 1/A1
 Total energy = -2803.39308680 a.u.  Excitation energy = 12.3217 eV.
 R1^2 = 0.9283  R2^2 = 0.0717  Res^2 = 9.82e-07
 Conv-d = yes

 Amplitude    Transitions between orbitals
  0.9584       19 (A1) A                 ->    infty        
 -0.0893       18 (A1) A                 ->    infty        
 -0.0337       15 (A1) A                 ->    infty        
  0.0179       17 (A1) A                 ->    infty        

              Summary of significant orbitals:

               Number  Type             Irrep      Energy
               26      Occ  Alpha      15 (A1)     -0.8103
               28      Occ  Alpha      17 (A1)     -0.6465
               31      Occ  Alpha      18 (A1)     -0.5841
               34      Occ  Alpha      19 (A1)     -0.4937


 EOMIP transition 2/A1
 Total energy = -2803.31093829 a.u.  Excitation energy = 14.5570 eV.
 R1^2 = 0.9169  R2^2 = 0.0831  Res^2 = 2.67e-06
 Conv-d = yes

 Amplitude    Transitions between orbitals
 -0.9486       18 (A1) A                 ->    infty        
 -0.0906       19 (A1) A                 ->    infty        
 -0.0847       17 (A1) A                 ->    infty        
 -0.0276       14 (A1) A                 ->    infty        

              Summary of significant orbitals:

               Number  Type             Irrep      Energy
               24      Occ  Alpha      14 (A1)     -0.9799
               28      Occ  Alpha      17 (A1)     -0.6465
               31      Occ  Alpha      18 (A1)     -0.5841
               34      Occ  Alpha      19 (A1)     -0.4937


Running a double precision version
      EOMIP-CCSD/MP2 left amplitudes will be solved using Davidson.
        Amplitudes will be solved using MOM  algorithm.
     Hard-coded thresholds: 
     LinDepThresh=1.00e-15  NormThresh=1.00e-06  ReorthogonThresh=1.00e-02

      Roots     MaxVec    MaxIter   Precond   Conv      Shift    
      2         120       60        1         1.00e-05  0.00e+00  
 ------------------------------------------------------------------------------
      Iter ConvRoots NVecs ResNorm Current eigenvalues (eV)
 ------------------------------------------------------------------------------
      0    0      2     5.92e-03   12.3217   14.5570   
      1    0      4     2.17e-03   12.3216   14.5569   
      2    0      6     1.17e-04   12.3217   14.5569   
      3    1      8     1.12e-05   12.3217*  14.5568   
      4    2      9     3.89e-06   12.3217*  14.5568*  

     Davidson procedure converged

        Solving for EOMIP-CCSD A2 transitions.

Running a double precision version
      EOMIP-CCSD/MP2 right amplitudes will be solved using Davidson.
        Amplitudes will be solved using standard  algorithm.
     Hard-coded thresholds: 
     LinDepThresh=1.00e-15  NormThresh=1.00e-06  ReorthogonThresh=1.00e-02

      Roots     MaxVec    MaxIter   Precond   Conv      Shift    
      2         120       60        1         1.00e-05  0.00e+00  
 ------------------------------------------------------------------------------
      Iter ConvRoots NVecs ResNorm Current eigenvalues (eV)
 ------------------------------------------------------------------------------
      0    0      2     4.80e-01   11.5099   87.0944   
      1    0      4     4.82e-01   9.8143   58.2279   
      2    0      6     1.65e-01   9.3444   37.0229   
      3    0      8     6.20e-02   9.3238   27.4746   
      4    1      10    1.04e-02   9.3226*  22.8417   
      5    1      11    8.48e-03   9.3227*  21.0009   
      6    1      12    2.83e-03   9.3227*  20.2161   
      7    1      13    2.41e-03   9.3226*  19.8996   
      8    1      14    8.38e-03   9.3226*  19.1106   
      9    1      15    2.34e-03   9.3226*  18.3564   
      10   1      16    4.45e-04   9.3226*  18.2067   
      11   1      17    1.46e-04   9.3226*  18.1718   
      12   1      18    5.34e-05   9.3226*  18.1584   
      13   1      19    1.53e-05   9.3226*  18.1542   
      14   2      20    4.24e-06   9.3226*  18.1530*  

     Davidson procedure converged

 EOMIP transition 1/A2
 Total energy = -2803.50329838 a.u.  Excitation energy = 9.3226 eV.
 R1^2 = 0.9387  R2^2 = 0.0613  Res^2 = 1.24e-06
 Conv-d = yes

 Amplitude    Transitions between orbitals
  0.9689       2 (A2) A                  ->    infty        

              Summary of significant orbitals:

               Number  Type             Irrep      Energy
               38      Occ  Alpha       2 (A2)     -0.3374


 EOMIP transition 2/A2
 Total energy = -2803.17878753 a.u.  Excitation energy = 18.1530 eV.
 R1^2 = 0.0000  R2^2 = 1.0000  Res^2 = 7.24e-06
 Conv-d = yes

 Amplitude    Transitions between orbitals
 -0.7802       2 (A2) A      2 (A2) B    ->    3 (A2) B     
  0.7802       2 (A2) B      2 (A2) A    ->    3 (A2) B     
 -0.4045       6 (B2) A      2 (A2) B    ->    7 (B2) B     
  0.4045       2 (A2) B      6 (B2) A    ->    7 (B2) B     
 -0.2726       2 (A2) A      6 (B2) B    ->    7 (B2) B     
  0.2726       6 (B2) B      2 (A2) A    ->    7 (B2) B     
 -0.1442       4 (B2) A      2 (A2) B    ->    8 (B2) B     
  0.1442       2 (A2) B      4 (B2) A    ->    8 (B2) B     
  0.1217       2 (A2) A      2 (A2) B    ->    5 (A2) B     
 -0.1217       2 (A2) B      2 (A2) A    ->    5 (A2) B     
  0.1021       2 (A2) A      2 (A2) B    ->    6 (A2) B     
 -0.1021       2 (A2) B      2 (A2) A    ->    6 (A2) B     
 -0.1009       5 (B2) A      2 (A2) B    ->    8 (B2) B     
  0.1009       2 (A2) B      5 (B2) A    ->    8 (B2) B     

              Summary of significant orbitals:

               Number  Type             Irrep      Energy
               38      Occ  Alpha       2 (A2)     -0.3374
               32      Occ  Alpha       4 (B2)     -0.5292
               35      Occ  Alpha       5 (B2)     -0.4424
               37      Occ  Alpha       6 (B2)     -0.3392
               38      Occ  Beta        2 (A2)     -0.3374
               37      Occ  Beta        6 (B2)     -0.3392
               39      Vir  Beta        3 (A2)      0.1048
               63      Vir  Beta        5 (A2)      0.5168
               71      Vir  Beta        6 (A2)      0.5936
               40      Vir  Beta        7 (B2)      0.1148
               47      Vir  Beta        8 (B2)      0.3005


Running a double precision version
      EOMIP-CCSD/MP2 left amplitudes will be solved using Davidson.
        Amplitudes will be solved using MOM  algorithm.
     Hard-coded thresholds: 
     LinDepThresh=1.00e-15  NormThresh=1.00e-06  ReorthogonThresh=1.00e-02

      Roots     MaxVec    MaxIter   Precond   Conv      Shift    
      2         120       60        1         1.00e-05  0.00e+00  
 ------------------------------------------------------------------------------
      Iter ConvRoots NVecs ResNorm Current eigenvalues (eV)
 ------------------------------------------------------------------------------
      0    0      2     1.70e-03   9.3226   18.1530   
      1    0      4     6.71e-04   9.3226   18.1529   
      2    0      6     3.64e-05   9.3226   18.1529   
      3    2      8     3.52e-06   9.3226*  18.1528*  

     Davidson procedure converged

        Solving for EOMIP-CCSD B1 transitions.

Running a double precision version
      EOMIP-CCSD/MP2 right amplitudes will be solved using Davidson.
        Amplitudes will be solved using standard  algorithm.
     Hard-coded thresholds: 
     LinDepThresh=1.00e-15  NormThresh=1.00e-06  ReorthogonThresh=1.00e-02

      Roots     MaxVec    MaxIter   Precond   Conv      Shift    
      2         120       60        1         1.00e-05  0.00e+00  
 ------------------------------------------------------------------------------
      Iter ConvRoots NVecs ResNorm Current eigenvalues (eV)
 ------------------------------------------------------------------------------
      0    0      2     1.18e-01   12.9604   15.7924   
      1    0      4     5.46e-02   11.4728   13.3172   
      2    0      6     9.21e-04   10.7489   12.6689   
      3    0      8     8.95e-05   10.7327   12.6394   
      4    1      10    9.25e-06   10.7320*  12.6379   
      5    2      11    4.04e-06   10.7320*  12.6372*  

     Davidson procedure converged

 EOMIP transition 1/B1
 Total energy = -2803.45150611 a.u.  Excitation energy = 10.7320 eV.
 R1^2 = 0.9364  R2^2 = 0.0636  Res^2 = 6.91e-06
 Conv-d = yes

 Amplitude    Transitions between orbitals
 -0.9662       11 (B1) A                 ->    infty        
  0.0420       10 (B1) A                 ->    infty        
 -0.0275       8 (B1) A                  ->    infty        
  0.0138       7 (B1) A                  ->    infty        

              Summary of significant orbitals:

               Number  Type             Irrep      Energy
               25      Occ  Alpha       7 (B1)     -0.8470
               29      Occ  Alpha       8 (B1)     -0.6385
               33      Occ  Alpha      10 (B1)     -0.5168
               36      Occ  Alpha      11 (B1)     -0.4185


 EOMIP transition 2/B1
 Total energy = -2803.38149075 a.u.  Excitation energy = 12.6372 eV.
 R1^2 = 0.9234  R2^2 = 0.0766  Res^2 = 1.17e-06
 Conv-d = yes

 Amplitude    Transitions between orbitals
  0.9593       10 (B1) A                 ->    infty        
  0.0430       11 (B1) A                 ->    infty        
  0.0333       7 (B1) A                  ->    infty        
 -0.0124       9 (B1) A                  ->    infty        

              Summary of significant orbitals:

               Number  Type             Irrep      Energy
               25      Occ  Alpha       7 (B1)     -0.8470
               30      Occ  Alpha       9 (B1)     -0.5869
               33      Occ  Alpha      10 (B1)     -0.5168
               36      Occ  Alpha      11 (B1)     -0.4185


Running a double precision version
      EOMIP-CCSD/MP2 left amplitudes will be solved using Davidson.
        Amplitudes will be solved using MOM  algorithm.
     Hard-coded thresholds: 
     LinDepThresh=1.00e-15  NormThresh=1.00e-06  ReorthogonThresh=1.00e-02

      Roots     MaxVec    MaxIter   Precond   Conv      Shift    
      2         120       60        1         1.00e-05  0.00e+00  
 ------------------------------------------------------------------------------
      Iter ConvRoots NVecs ResNorm Current eigenvalues (eV)
 ------------------------------------------------------------------------------
      0    0      2     4.91e-03   10.7320   12.6372   
      1    0      4     1.84e-03   10.7316   12.6371   
      2    0      6     9.75e-05   10.7315   12.6372   
      3    1      8     1.16e-05   10.7315*  12.6372   
      4    2      9     3.37e-06   10.7315*  12.6372*  

     Davidson procedure converged

        Solving for EOMIP-CCSD B2 transitions.

Running a double precision version
      EOMIP-CCSD/MP2 right amplitudes will be solved using Davidson.
        Amplitudes will be solved using standard  algorithm.
     Hard-coded thresholds: 
     LinDepThresh=1.00e-15  NormThresh=1.00e-06  ReorthogonThresh=1.00e-02

      Roots     MaxVec    MaxIter   Precond   Conv      Shift    
      2         120       60        1         1.00e-05  0.00e+00  
 ------------------------------------------------------------------------------
      Iter ConvRoots NVecs ResNorm Current eigenvalues (eV)
 ------------------------------------------------------------------------------
      0    0      2     9.66e-02   11.3843   13.7853   
      1    0      4     4.77e-02   9.7159   12.1738   
      2    0      6     1.03e-03   9.1631   11.4801   
      3    0      8     1.58e-04   9.1452   11.4511   
      4    0      10    1.83e-05   9.1430   11.4453   
      5    2      12    3.39e-06   9.1427*  11.4443*  

     Davidson procedure converged

 EOMIP transition 1/B2
 Total energy = -2803.50991196 a.u.  Excitation energy = 9.1427 eV.
 R1^2 = 0.9386  R2^2 = 0.0614  Res^2 = 9.57e-07
 Conv-d = yes

 Amplitude    Transitions between orbitals
 -0.9667       6 (B2) A                  ->    infty        
  0.0634       5 (B2) A                  ->    infty        
  0.0087       4 (B2) A                  ->    infty        
 -0.0001       3 (B2) A                  ->    infty        

              Summary of significant orbitals:

               Number  Type             Irrep      Energy
               17      Occ  Alpha       3 (B2)     -3.1919
               32      Occ  Alpha       4 (B2)     -0.5292
               35      Occ  Alpha       5 (B2)     -0.4424
               37      Occ  Alpha       6 (B2)     -0.3392


 EOMIP transition 2/B2
 Total energy = -2803.42533064 a.u.  Excitation energy = 11.4443 eV.
 R1^2 = 0.9268  R2^2 = 0.0732  Res^2 = 5.82e-06
 Conv-d = yes

 Amplitude    Transitions between orbitals
 -0.9608       5 (B2) A                  ->    infty        
 -0.0598       6 (B2) A                  ->    infty        
 -0.0095       4 (B2) A                  ->    infty        
 -0.0002       3 (B2) A                  ->    infty        

              Summary of significant orbitals:

               Number  Type             Irrep      Energy
               17      Occ  Alpha       3 (B2)     -3.1919
               32      Occ  Alpha       4 (B2)     -0.5292
               35      Occ  Alpha       5 (B2)     -0.4424
               37      Occ  Alpha       6 (B2)     -0.3392


Running a double precision version
      EOMIP-CCSD/MP2 left amplitudes will be solved using Davidson.
        Amplitudes will be solved using MOM  algorithm.
     Hard-coded thresholds: 
     LinDepThresh=1.00e-15  NormThresh=1.00e-06  ReorthogonThresh=1.00e-02

      Roots     MaxVec    MaxIter   Precond   Conv      Shift    
      2         120       60        1         1.00e-05  0.00e+00  
 ------------------------------------------------------------------------------
      Iter ConvRoots NVecs ResNorm Current eigenvalues (eV)
 ------------------------------------------------------------------------------
      0    0      2     3.30e-03   9.1427   11.4443   
      1    0      4     1.59e-03   9.1426   11.4441   
      2    0      6     2.08e-04   9.1427   11.4440   
      3    1      8     5.62e-05   9.1427*  11.4441   
      4    1      9     7.66e-06   9.1427*  11.4440   
      5    2      10    2.71e-06   9.1427*  11.4440*  

     Davidson procedure converged

 EOMIP-CCSD calculation:   CPU 160.60 s  wall 31.07 s


 Start computing the transition properties

 ------------------------------------------------------------------------------
 State A: ccsd: 0/A1
 State B: eomip_ccsd/a: 1/A1
 Transition density matrix between ccsd and eomip_ccsd has not been implemented yet!


 ------------------------------------------------------------------------------
 contents of the context

/canmo/ao/dx_bb
/canmo/ao/dxx_bb
/canmo/ao/dy_bb
/canmo/ao/dyy_bb
/canmo/ao/dz_bb
/canmo/ao/dzz_bb
/canmo/ao/fa_bb
/canmo/ao/fb_bb
/canmo/ao/ke_bb
/canmo/ao/nucmm
/canmo/ao/s_bb
/canmo/aobasis/b1
/canmo/aobasis/bm
/canmo/aobasis/bsp
/canmo/aobasis/bx1
/canmo/aobasis/charges
/canmo/ccsd/energy
/canmo/ccsd/f2_oo
/canmo/ccsd/f2_ov
/canmo/ccsd/f2_vv
/canmo/ccsd/fz_oo
/canmo/ccsd/fz_vv
/canmo/ccsd/hd_o
/canmo/ccsd/hd_oov
/canmo/ccsd/i1_ovov
/canmo/ccsd/i2_ooov
/canmo/ccsd/i3_ovvv
/canmo/ccsd/i4_oooo
/canmo/ccsd/i5_vvvv
/canmo/ccsd/i6_ooov
/canmo/ccsd/i7_ovvv
/canmo/ccsd/l1
/canmo/ccsd/l2
/canmo/ccsd/t1
/canmo/ccsd/t2
/canmo/ccsd/t_converged
/canmo/ccsd/total_energy
/canmo/eomip_ccsd/a/1/1/energy
/canmo/eomip_ccsd/a/1/1/l0
/canmo/eomip_ccsd/a/1/1/l1
/canmo/eomip_ccsd/a/1/1/l2
/canmo/eomip_ccsd/a/1/1/left_root_conv
/canmo/eomip_ccsd/a/1/1/r1
/canmo/eomip_ccsd/a/1/1/r2
/canmo/eomip_ccsd/a/1/1/right_root_conv
/canmo/eomip_ccsd/a/1/1/rresnorm
/canmo/eomip_ccsd/a/1/1/total_energy
/canmo/eomip_ccsd/a/1/2/energy
/canmo/eomip_ccsd/a/1/2/l0
/canmo/eomip_ccsd/a/1/2/l1
/canmo/eomip_ccsd/a/1/2/l2
/canmo/eomip_ccsd/a/1/2/left_root_conv
/canmo/eomip_ccsd/a/1/2/r1
/canmo/eomip_ccsd/a/1/2/r2
/canmo/eomip_ccsd/a/1/2/right_root_conv
/canmo/eomip_ccsd/a/1/2/rresnorm
/canmo/eomip_ccsd/a/1/2/total_energy
/canmo/eomip_ccsd/a/1/guess/1/energy
/canmo/eomip_ccsd/a/1/guess/1/r1
/canmo/eomip_ccsd/a/1/guess/1/r2
/canmo/eomip_ccsd/a/1/guess/1/right_root_conv
/canmo/eomip_ccsd/a/1/guess/1/rresnorm
/canmo/eomip_ccsd/a/1/guess/1/total_energy
/canmo/eomip_ccsd/a/1/guess/2/energy
/canmo/eomip_ccsd/a/1/guess/2/r1
/canmo/eomip_ccsd/a/1/guess/2/r2
/canmo/eomip_ccsd/a/1/guess/2/right_root_conv
/canmo/eomip_ccsd/a/1/guess/2/rresnorm
/canmo/eomip_ccsd/a/1/guess/2/total_energy
/canmo/eomip_ccsd/a/1/guess/nstates
/canmo/eomip_ccsd/a/1/nstates
/canmo/eomip_ccsd/a/2/1/energy
/canmo/eomip_ccsd/a/2/1/l0
/canmo/eomip_ccsd/a/2/1/l1
/canmo/eomip_ccsd/a/2/1/l2
/canmo/eomip_ccsd/a/2/1/left_root_conv
/canmo/eomip_ccsd/a/2/1/r1
/canmo/eomip_ccsd/a/2/1/r2
/canmo/eomip_ccsd/a/2/1/right_root_conv
/canmo/eomip_ccsd/a/2/1/rresnorm
/canmo/eomip_ccsd/a/2/1/total_energy
/canmo/eomip_ccsd/a/2/2/energy
/canmo/eomip_ccsd/a/2/2/l0
/canmo/eomip_ccsd/a/2/2/l1
/canmo/eomip_ccsd/a/2/2/l2
/canmo/eomip_ccsd/a/2/2/left_root_conv
/canmo/eomip_ccsd/a/2/2/r1
/canmo/eomip_ccsd/a/2/2/r2
/canmo/eomip_ccsd/a/2/2/right_root_conv
/canmo/eomip_ccsd/a/2/2/rresnorm
/canmo/eomip_ccsd/a/2/2/total_energy
/canmo/eomip_ccsd/a/2/guess/1/energy
/canmo/eomip_ccsd/a/2/guess/1/r1
/canmo/eomip_ccsd/a/2/guess/1/r2
/canmo/eomip_ccsd/a/2/guess/1/right_root_conv
/canmo/eomip_ccsd/a/2/guess/1/rresnorm
/canmo/eomip_ccsd/a/2/guess/1/total_energy
/canmo/eomip_ccsd/a/2/guess/2/energy
/canmo/eomip_ccsd/a/2/guess/2/r1
/canmo/eomip_ccsd/a/2/guess/2/r2
/canmo/eomip_ccsd/a/2/guess/2/right_root_conv
/canmo/eomip_ccsd/a/2/guess/2/rresnorm
/canmo/eomip_ccsd/a/2/guess/2/total_energy
/canmo/eomip_ccsd/a/2/guess/nstates
/canmo/eomip_ccsd/a/2/nstates
/canmo/eomip_ccsd/a/3/1/energy
/canmo/eomip_ccsd/a/3/1/l0
/canmo/eomip_ccsd/a/3/1/l1
/canmo/eomip_ccsd/a/3/1/l2
/canmo/eomip_ccsd/a/3/1/left_root_conv
/canmo/eomip_ccsd/a/3/1/r1
/canmo/eomip_ccsd/a/3/1/r2
/canmo/eomip_ccsd/a/3/1/right_root_conv
/canmo/eomip_ccsd/a/3/1/rresnorm
/canmo/eomip_ccsd/a/3/1/total_energy
/canmo/eomip_ccsd/a/3/2/energy
/canmo/eomip_ccsd/a/3/2/l0
/canmo/eomip_ccsd/a/3/2/l1
/canmo/eomip_ccsd/a/3/2/l2
/canmo/eomip_ccsd/a/3/2/left_root_conv
/canmo/eomip_ccsd/a/3/2/r1
/canmo/eomip_ccsd/a/3/2/r2
/canmo/eomip_ccsd/a/3/2/right_root_conv
/canmo/eomip_ccsd/a/3/2/rresnorm
/canmo/eomip_ccsd/a/3/2/total_energy
/canmo/eomip_ccsd/a/3/guess/1/energy
/canmo/eomip_ccsd/a/3/guess/1/r1
/canmo/eomip_ccsd/a/3/guess/1/r2
/canmo/eomip_ccsd/a/3/guess/1/right_root_conv
/canmo/eomip_ccsd/a/3/guess/1/rresnorm
/canmo/eomip_ccsd/a/3/guess/1/total_energy
/canmo/eomip_ccsd/a/3/guess/2/energy
/canmo/eomip_ccsd/a/3/guess/2/r1
/canmo/eomip_ccsd/a/3/guess/2/r2
/canmo/eomip_ccsd/a/3/guess/2/right_root_conv
/canmo/eomip_ccsd/a/3/guess/2/rresnorm
/canmo/eomip_ccsd/a/3/guess/2/total_energy
/canmo/eomip_ccsd/a/3/guess/nstates
/canmo/eomip_ccsd/a/3/nstates
/canmo/eomip_ccsd/a/4/1/energy
/canmo/eomip_ccsd/a/4/1/l0
/canmo/eomip_ccsd/a/4/1/l1
/canmo/eomip_ccsd/a/4/1/l2
/canmo/eomip_ccsd/a/4/1/left_root_conv
/canmo/eomip_ccsd/a/4/1/r1
/canmo/eomip_ccsd/a/4/1/r2
/canmo/eomip_ccsd/a/4/1/right_root_conv
/canmo/eomip_ccsd/a/4/1/rresnorm
/canmo/eomip_ccsd/a/4/1/total_energy
/canmo/eomip_ccsd/a/4/2/energy
/canmo/eomip_ccsd/a/4/2/l0
/canmo/eomip_ccsd/a/4/2/l1
/canmo/eomip_ccsd/a/4/2/l2
/canmo/eomip_ccsd/a/4/2/left_root_conv
/canmo/eomip_ccsd/a/4/2/r1
/canmo/eomip_ccsd/a/4/2/r2
/canmo/eomip_ccsd/a/4/2/right_root_conv
/canmo/eomip_ccsd/a/4/2/rresnorm
/canmo/eomip_ccsd/a/4/2/total_energy
/canmo/eomip_ccsd/a/4/guess/1/energy
/canmo/eomip_ccsd/a/4/guess/1/r1
/canmo/eomip_ccsd/a/4/guess/1/r2
/canmo/eomip_ccsd/a/4/guess/1/right_root_conv
/canmo/eomip_ccsd/a/4/guess/1/rresnorm
/canmo/eomip_ccsd/a/4/guess/1/total_energy
/canmo/eomip_ccsd/a/4/guess/2/energy
/canmo/eomip_ccsd/a/4/guess/2/r1
/canmo/eomip_ccsd/a/4/guess/2/r2
/canmo/eomip_ccsd/a/4/guess/2/right_root_conv
/canmo/eomip_ccsd/a/4/guess/2/rresnorm
/canmo/eomip_ccsd/a/4/guess/2/total_energy
/canmo/eomip_ccsd/a/4/guess/nstates
/canmo/eomip_ccsd/a/4/nstates
/canmo/eomip_ccsd/a/nirreps
/canmo/hf/c_fb
/canmo/hf/c_o1b
/canmo/hf/c_o2b
/canmo/hf/c_v1b
/canmo/hf/ej
/canmo/hf/eka
/canmo/hf/ekb
/canmo/hf/energy
/canmo/hf/f_o1o1
/canmo/hf/f_o1o2
/canmo/hf/f_o1v1
/canmo/hf/f_o2o2
/canmo/hf/f_o2v1
/canmo/hf/f_v1v1
/canmo/hf/fd_o1
/canmo/hf/fd_o2
/canmo/hf/fd_v1
/canmo/hf/frozen_core_energy
/canmo/hf/i_o1o1o1o1
/canmo/hf/i_o1o1o1v1
/canmo/hf/i_o1o1v1v1
/canmo/hf/i_o1v1o1v1
/canmo/hf/i_o1v1v1v1
/canmo/hf/i_v1v1v1v1
/canmo/hf/ke_o1o1
/canmo/hf/ke_o1o2
/canmo/hf/ke_o1v1
/canmo/hf/ke_o2o2
/canmo/hf/ke_o2v1
/canmo/hf/ke_v1v1
/canmo/hf/kin_energy
/canmo/hf/nossa
/canmo/hf/nossb
/canmo/hf/nuc_attr_energy
/canmo/hf/nuc_energy
/canmo/hf/nvssa
/canmo/hf/nvssb
/canmo/hf/oe_f
/canmo/hf/oe_o1
/canmo/hf/oe_o2
/canmo/hf/oe_v1
/canmo/hf/oemap_f
/canmo/hf/omap_f
/canmo/hf/omap_o1
/canmo/hf/omap_o2
/canmo/hf/omap_v1
/canmo/hf/total_energy
/canmo/hf/unrestricted
/canmo/left_root_conv
/canmo/mp2/d_ov
/canmo/mp2/energy
/canmo/mp2/t1
/canmo/mp2/t2
/canmo/mp2/t_converged
/canmo/mp2/total_energy
/canmo/prop/dx_bb
/canmo/prop/dx_o1o1
/canmo/prop/dx_o1o2
/canmo/prop/dx_o1v1
/canmo/prop/dx_o2o2
/canmo/prop/dx_o2v1
/canmo/prop/dx_v1v1
/canmo/prop/dxx_bb
/canmo/prop/dxx_o1o1
/canmo/prop/dxx_o1o2
/canmo/prop/dxx_o1v1
/canmo/prop/dxx_o2o2
/canmo/prop/dxx_o2v1
/canmo/prop/dxx_v1v1
/canmo/prop/dy_bb
/canmo/prop/dy_o1o1
/canmo/prop/dy_o1o2
/canmo/prop/dy_o1v1
/canmo/prop/dy_o2o2
/canmo/prop/dy_o2v1
/canmo/prop/dy_v1v1
/canmo/prop/dyy_bb
/canmo/prop/dyy_o1o1
/canmo/prop/dyy_o1o2
/canmo/prop/dyy_o1v1
/canmo/prop/dyy_o2o2
/canmo/prop/dyy_o2v1
/canmo/prop/dyy_v1v1
/canmo/prop/dz_bb
/canmo/prop/dz_o1o1
/canmo/prop/dz_o1o2
/canmo/prop/dz_o1v1
/canmo/prop/dz_o2o2
/canmo/prop/dz_o2v1
/canmo/prop/dz_v1v1
/canmo/prop/dzz_bb
/canmo/prop/dzz_o1o1
/canmo/prop/dzz_o1o2
/canmo/prop/dzz_o1v1
/canmo/prop/dzz_o2o2
/canmo/prop/dzz_o2v1
/canmo/prop/dzz_v1v1
/canmo/prop/nucmm
/canmo/prop/vpc_bb
/canmo/right_root_conv
/canmo/spaces/b
/canmo/spaces/f
/canmo/spaces/o1
/canmo/spaces/o1_a
/canmo/spaces/o1_b
/canmo/spaces/o2
/canmo/spaces/o2_a
/canmo/spaces/o2_b
/canmo/spaces/s
/canmo/spaces/v1
/canmo/spaces/v1_a
/canmo/spaces/v1_b
/canmo/symmetry/ab_o1
/canmo/symmetry/ab_o2
/canmo/symmetry/ab_v1
/canmo/symmetry/ib_o1
/canmo/symmetry/ib_o2
/canmo/symmetry/ib_v1
/canmo/symmetry/irreps_f
/canmo/symmetry/pg/irreps
/canmo/symmetry/pg/name
/canmo_unsrt/hf/c_fb
/canmo_unsrt/hf/nossa
/canmo_unsrt/hf/nossb
/canmo_unsrt/hf/nvssa
/canmo_unsrt/hf/nvssb
/canmo_unsrt/hf/oe_f
/canmo_unsrt/hf/oemap_f
/canmo_unsrt/hf/omap_f
/canmo_unsrt/hf/unrestricted
/canmo_unsrt/spaces/b
/canmo_unsrt/spaces/f
/canmo_unsrt/spaces/s
/canmo_unsrt/symmetry/irreps_f
/canmo_unsrt/symmetry/pg/irreps
/canmo_unsrt/symmetry/pg/name
/qcimport/1/hf/c_fb
/qcimport/1/hf/oe_f
/qcimport/1/hf/omap_f
/qcimport/1/hf/unrestricted
/qcimport/1/spaces/b
/qcimport/1/spaces/f
/qcimport/1/spaces/s
/qcimport/1/symmetry/irreps_f
/qcimport/1/symmetry/pg/irreps
/qcimport/1/symmetry/pg/name
/qcimport/2/hf/c_fb
/qcimport/2/hf/nossa
/qcimport/2/hf/nossb
/qcimport/2/hf/nvssa
/qcimport/2/hf/nvssb
/qcimport/2/hf/oe_f
/qcimport/2/hf/omap_f
/qcimport/2/hf/unrestricted
/qcimport/2/spaces/b
/qcimport/2/spaces/f
/qcimport/2/spaces/s
/qcimport/2/symmetry/irreps_f
/qcimport/2/symmetry/pg/irreps
/qcimport/2/symmetry/pg/name
/qcimport/3/hf/c_fb
/qcimport/3/hf/nossa
/qcimport/3/hf/nossb
/qcimport/3/hf/nvssa
/qcimport/3/hf/nvssb
/qcimport/3/hf/oe_f
/qcimport/3/hf/oemap_f
/qcimport/3/hf/omap_f
/qcimport/3/hf/unrestricted
/qcimport/3/spaces/b
/qcimport/3/spaces/f
/qcimport/3/spaces/s
/qcimport/3/symmetry/irreps_f
/qcimport/3/symmetry/pg/irreps
/qcimport/3/symmetry/pg/name
/rawmo/ao/dx_bb
/rawmo/ao/dxx_bb
/rawmo/ao/dy_bb
/rawmo/ao/dyy_bb
/rawmo/ao/dz_bb
/rawmo/ao/dzz_bb
/rawmo/ao/fa_bb
/rawmo/ao/fb_bb
/rawmo/ao/ke_bb
/rawmo/ao/nucmm
/rawmo/ao/s_bb
/rawmo/hf/c_fb
/rawmo/hf/c_o1b
/rawmo/hf/c_o2b
/rawmo/hf/c_v1b
/rawmo/hf/ej
/rawmo/hf/eka
/rawmo/hf/ekb
/rawmo/hf/energy
/rawmo/hf/f_o1o1
/rawmo/hf/f_o1o2
/rawmo/hf/f_o1v1
/rawmo/hf/f_o2o2
/rawmo/hf/f_o2v1
/rawmo/hf/f_v1v1
/rawmo/hf/fd_o1
/rawmo/hf/fd_o2
/rawmo/hf/fd_v1
/rawmo/hf/frozen_core_energy
/rawmo/hf/ke_o1o1
/rawmo/hf/ke_o1o2
/rawmo/hf/ke_o1v1
/rawmo/hf/ke_o2o2
/rawmo/hf/ke_o2v1
/rawmo/hf/ke_v1v1
/rawmo/hf/kin_energy
/rawmo/hf/nossa
/rawmo/hf/nossb
/rawmo/hf/nuc_attr_energy
/rawmo/hf/nuc_energy
/rawmo/hf/nvssa
/rawmo/hf/nvssb
/rawmo/hf/oe_f
/rawmo/hf/oe_o1
/rawmo/hf/oe_o2
/rawmo/hf/oe_v1
/rawmo/hf/oemap_f
/rawmo/hf/omap_f
/rawmo/hf/omap_o1
/rawmo/hf/omap_o2
/rawmo/hf/omap_v1
/rawmo/hf/total_energy
/rawmo/hf/unrestricted
/rawmo/prop/dx_bb
/rawmo/prop/dx_o1o1
/rawmo/prop/dx_o1o2
/rawmo/prop/dx_o1v1
/rawmo/prop/dx_o2o2
/rawmo/prop/dx_o2v1
/rawmo/prop/dx_v1v1
/rawmo/prop/dxx_bb
/rawmo/prop/dxx_o1o1
/rawmo/prop/dxx_o1o2
/rawmo/prop/dxx_o1v1
/rawmo/prop/dxx_o2o2
/rawmo/prop/dxx_o2v1
/rawmo/prop/dxx_v1v1
/rawmo/prop/dy_bb
/rawmo/prop/dy_o1o1
/rawmo/prop/dy_o1o2
/rawmo/prop/dy_o1v1
/rawmo/prop/dy_o2o2
/rawmo/prop/dy_o2v1
/rawmo/prop/dy_v1v1
/rawmo/prop/dyy_bb
/rawmo/prop/dyy_o1o1
/rawmo/prop/dyy_o1o2
/rawmo/prop/dyy_o1v1
/rawmo/prop/dyy_o2o2
/rawmo/prop/dyy_o2v1
/rawmo/prop/dyy_v1v1
/rawmo/prop/dz_bb
/rawmo/prop/dz_o1o1
/rawmo/prop/dz_o1o2
/rawmo/prop/dz_o1v1
/rawmo/prop/dz_o2o2
/rawmo/prop/dz_o2v1
/rawmo/prop/dz_v1v1
/rawmo/prop/dzz_bb
/rawmo/prop/dzz_o1o1
/rawmo/prop/dzz_o1o2
/rawmo/prop/dzz_o1v1
/rawmo/prop/dzz_o2o2
/rawmo/prop/dzz_o2v1
/rawmo/prop/dzz_v1v1
/rawmo/prop/nucmm
/rawmo/prop/vpc_bb
/rawmo/spaces/b
/rawmo/spaces/f
/rawmo/spaces/o1
/rawmo/spaces/o1_a
/rawmo/spaces/o1_b
/rawmo/spaces/o2
/rawmo/spaces/o2_a
/rawmo/spaces/o2_b
/rawmo/spaces/s
/rawmo/spaces/v1
/rawmo/spaces/v1_a
/rawmo/spaces/v1_b
/rawmo/symmetry/ab_o1
/rawmo/symmetry/ab_o2
/rawmo/symmetry/ab_v1
/rawmo/symmetry/ib_o1
/rawmo/symmetry/ib_o2
/rawmo/symmetry/ib_v1
/rawmo/symmetry/irreps_f
/rawmo/symmetry/pg/irreps
/rawmo/symmetry/pg/name
 ------------------------------------------------------------------------------

