n-62-30-15 10.66.30
Q-Chem Developer Version! Running on 10.66.30.*
                  Welcome to Q-Chem
     A Quantum Leap Into The Future Of Chemistry


 Q-Chem 5.1, Q-Chem, Inc., Pleasanton, CA (2018)

 Yihan Shao,  Zhengting Gan,  E. Epifanovsky,  A. T. B. Gilbert,  M. Wormit,  
 J. Kussmann,  A. W. Lange,  A. Behn,  Jia Deng,  Xintian Feng,  D. Ghosh,  
 M. Goldey,  P. R. Horn,  L. D. Jacobson,  I. Kaliman,  T. Kus,  A. Landau,  
 Jie Liu,  E. I. Proynov,  R. M. Richard,  R. P. Steele,  E. J. Sundstrom,  
 H. L. Woodcock III,  P. M. Zimmerman,  D. Zuev,  B. Albrecht,  E. Alguire,  
 S. A. Baeppler,  D. Barton,  Z. Benda,  Y. A. Bernard,  E. J. Berquist,  
 K. B. Bravaya,  H. Burton,  D. Casanova,  Chun-Min Chang,  Yunqing Chen,  
 A. Chien,  K. D. Closser,  M. P. Coons,  S. Coriani,  S. Dasgupta,  
 A. L. Dempwolff,  M. Diedenhofen,  Hainam Do,  R. G. Edgar,  Po-Tung Fang,  
 S. Faraji,  S. Fatehi,  Qingguo Feng,  K. D. Fenk,  J. Fosso-Tande,  
 Qinghui Ge,  A. Ghysels,  G. Gidofalvi,  J. Gomes,  J. Gonthier,  A. Gunina,  
 M. W. D. Hanson-Heine,  P. H. P. Harbach,  A. W. Hauser,  J. E. Herr,  
 E. G. Hohenstein,  Z. C. Holden,  Kerwin Hui,  T.-C. Jagau,  Hyunjun Ji,  
 B. Kaduk,  K. Khistyaev,  Jaehoon Kim,  P. Klunzinger,  K. Koh,  
 D. Kosenkov,  L. Koulias,  T. Kowalczyk,  C. M. Krauter,  A. Kunitsa,  
 Ka Un Lao,  A. Laurent,  K. V. Lawler,  Joonho Lee,  D. Lefrancois,  
 S. Lehtola,  D. S. Levine,  Yi-Pei Li,  You-Sheng Lin,  Fenglai Liu,  
 E. Livshits,  A. Luenser,  P. Manohar,  E. Mansoor,  S. F. Manzer,  
 Shan-Ping Mao,  Yuezhi Mao,  N. Mardirossian,  A. V. Marenich,  
 T. Markovich,  L. A. Martinez-Martinez,  S. A. Maurer,  N. J. Mayhall,  
 S. C. McKenzie,  J.-M. Mewes,  A. F. Morrison,  J. W. Mullinax,  K. Nanda,  
 T. S. Nguyen-Beck,  R. Olivares-Amaya,  J. A. Parkhill,  T. M. Perrine,  
 F. Plasser,  P. Pokhilko,  S. Prager,  A. Prociuk,  E. Ramos,  D. R. Rehn,  
 F. Rob,  M. Schneider,  N. Sergueev,  S. M. Sharada,  S. Sharma,  
 D. W. Small,  T. Stauch,  T. Stein,  Yu-Chuan Su,  A. J. W. Thom,  
 A. Tkatchenko,  T. Tsuchimochi,  N. M. Tubman,  L. Vogt,  M. L. Vidal,  
 O. Vydrov,  M. A. Watson,  J. Wenzel,  M. de Wergifosse,  T. A. Wesolowski,  
 A. White,  J. Witte,  A. Yamada,  Jun Yang,  K. Yao,  S. Yeganeh,  
 S. R. Yost,  Zhi-Qiang You,  A. Zech,  Igor Ying Zhang,  Xing Zhang,  
 Yan Zhao,  Ying Zhu,  B. R. Brooks,  G. K. L. Chan,  C. J. Cramer,  
 M. S. Gordon,  W. J. Hehre,  A. Klamt,  M. W. Schmidt,  C. D. Sherrill,  
 D. G. Truhlar,  A. Aspuru-Guzik,  R. Baer,  A. T. Bell,  N. A. Besley,  
 Jeng-Da Chai,  R. A. DiStasio Jr.,  A. Dreuw,  B. D. Dunietz,  
 T. R. Furlani,  Chao-Ping Hsu,  Yousung Jung,  Jing Kong,  D. S. Lambrecht,  
 WanZhen Liang,  C. Ochsenfeld,  V. A. Rassolov,  L. V. Slipchenko,  
 J. E. Subotnik,  T. Van Voorhis,  J. M. Herbert,  A. I. Krylov,  
 P. M. W. Gill,  M. Head-Gordon

 Contributors to earlier versions of Q-Chem not listed above: 
 R. D. Adamson,  B. Austin,  J. Baker,  G. J. O. Beran,  K. Brandhorst,  
 S. T. Brown,  E. F. C. Byrd,  A. K. Chakraborty,  C.-L. Cheng,  
 Siu Hung Chien,  D. M. Chipman,  D. L. Crittenden,  H. Dachsel,  
 R. J. Doerksen,  A. D. Dutoi,  L. Fusti-Molnar,  W. A. Goddard III,  
 A. Golubeva-Zadorozhnaya,  S. R. Gwaltney,  G. Hawkins,  A. Heyden,  
 S. Hirata,  G. Kedziora,  F. J. Keil,  C. Kelley,  Jihan Kim,  R. A. King,  
 R. Z. Khaliullin,  P. P. Korambath,  W. Kurlancheek,  A. M. Lee,  M. S. Lee,  
 S. V. Levchenko,  Ching Yeh Lin,  D. Liotard,  R. C. Lochan,  I. Lotan,  
 P. E. Maslen,  N. Nair,  D. P. O'Neill,  D. Neuhauser,  E. Neuscamman,  
 C. M. Oana,  R. Olson,  B. Peters,  R. Peverati,  P. A. Pieniazek,  
 Y. M. Rhee,  J. Ritchie,  M. A. Rohrdanz,  E. Rosta,  N. J. Russ,  
 H. F. Schaefer III,  N. E. Schultz,  N. Shenvi,  A. C. Simmonett,  A. Sodt,  
 D. Stuck,  K. S. Thanthiriwatte,  V. Vanovschi,  Tao Wang,  A. Warshel,  
 C. F. Williams,  Q. Wu,  X. Xu,  W. Zhang

 Please cite Q-Chem as follows:
 Y. Shao et al., Mol. Phys. 113, 184-215 (2015)
 DOI: 10.1080/00268976.2014.952696

 Q-Chem 5.1.0 for Intel X86 EM64T Linux

 Parts of Q-Chem use Armadillo 8.300.2 (Tropical Shenanigans).
 http://arma.sourceforge.net/

 Q-Chem begins on Tue Nov 20 13:15:14 2018  

Host: 
0

     Scratch files written to /work1/malop/qc_7469360.hnode2//

Checking the input file for inconsistencies... 	...done.

--------------------------------------------------------------
User input:
--------------------------------------------------------------
$comment
Optimized Cl-Bz, XAS
UV-Vis
basis = 6-311(2+,+)G** uncontracted on C 
$end

$molecule
0 1
H      -2.1434404908     0.0000000000    -0.2235906397
C      -1.2132672529    -0.0000000000    -0.7727863601
C      -1.2050294832    -0.0000000000    -2.1658702173
H      -2.1443854307    -0.0000000000    -2.7014917948
C       0.0000000000    -0.0000000000    -2.8650776091
H       0.0000000000    -0.0000000000    -3.9458877158
C       1.2050294832    -0.0000000000    -2.1658702173
H       2.1443854307    -0.0000000000    -2.7014917948
C       1.2132672529    -0.0000000000    -0.7727863601
H       2.1434404908    -0.0000000000    -0.2235906397
C      -0.0000000000    -0.0000000000    -0.0899907575
Br     -0.0000000000     0.0000000000     1.7940097632
$end

$rem
   JOB_TYPE  =  SP
   BASIS  =  general
   METHOD  =  EOM-CCSD
   EE_STATES = [2,2,2,2]
   eom_preconv_singles = true
   n_frozen_core = 7
   cc_trans_prop = true
   use_libqints = 1   !use new int library (will be def in trunk)
   cc_memory = 100000
$end

$basis
H    0
6-311(2+,+)G** 
****
C    0
S    1    1.000000
   4.56324000E+03    1.96665000E-03
S    1    1.000000
   6.82024000E+02    1.52306000E-02
S    1    1.000000
   1.54973000E+02    7.61269000E-02
S    1    1.000000
   4.44553000E+01    2.60801000E-01
S    1    1.000000
   1.30290000E+01    6.16462000E-01
S    1    1.000000
   1.82773000E+00    2.21006000E-01
SP   3    1.000000
   2.09642000E+01    1.14660000E-01   4.02487000E-02
   4.80331000E+00    9.19999000E-01   2.37594000E-01
   1.45933000E+00   -3.03068000E-03   8.15854000E-01
SP   1    1.000000
   4.83456000E-01    1.00000000E+00   1.00000000E+00
SP   1    1.000000
   1.45585000E-01    1.00000000E+00   1.00000000E+00
SP   1    1.000000
   4.38000000E-02    1.00000000E+00   1.00000000E+00
SP   1    1.000000
   1.31927711E-02    1.00000000E+00   1.00000000E+00
D    1    1.000000
   6.26000000E-01    1.00000000E+00
****
Br   0
6-311(2+,+)G**
****
$end

--------------------------------------------------------------
 ----------------------------------------------------------------
             Standard Nuclear Orientation (Angstroms)
    I     Atom           X                Y                Z
 ----------------------------------------------------------------
    1      H      -2.1434404908     0.0000000000    -0.2235906397
    2      C      -1.2132672529    -0.0000000000    -0.7727863601
    3      C      -1.2050294832    -0.0000000000    -2.1658702173
    4      H      -2.1443854307    -0.0000000000    -2.7014917948
    5      C       0.0000000000    -0.0000000000    -2.8650776091
    6      H       0.0000000000    -0.0000000000    -3.9458877158
    7      C       1.2050294832    -0.0000000000    -2.1658702173
    8      H       2.1443854307    -0.0000000000    -2.7014917948
    9      C       1.2132672529    -0.0000000000    -0.7727863601
   10      H       2.1434404908    -0.0000000000    -0.2235906397
   11      C      -0.0000000000    -0.0000000000    -0.0899907575
   12      Br     -0.0000000000     0.0000000000     1.7940097632
 ----------------------------------------------------------------
 Molecular Point Group                 C2v   NOp =  4
 Largest Abelian Subgroup              C2v   NOp =  4
 Nuclear Repulsion Energy =   432.5066877038 hartrees
 There are       38 alpha and       38 beta electrons

 Q-Chem warning in module forms1/BasisType.C, line 1685:

 Setting pure/cartesian flag to 2111 for general basis


 Requested basis set is non-standard
 There are 117 shells and 273 basis functions
MEM_TOTAL is adjusted to CC_MEMORY + MEM_STATIC!
 Total memory of 100192MB is distributed as follows: 
   QALLOC including MEM_STATIC uses 192MB
   MEM_STATIC is set to 192MB
   CCMAN JOB total memory use is  100000MB
 Warning: actual memory use might exceed 100192MB

 Total QAlloc Memory Limit    192 MB
 Mega-Array Size       188 MB
 MEM_STATIC part       192 MB

                       Distance Matrix (Angstroms)
             H (  1)   C (  2)   C (  3)   H (  4)   C (  5)   H (  6)
   C (  2)  1.080203
   C (  3)  2.157096  1.393108
   H (  4)  2.477901  2.141702  1.081333
   C (  5)  3.401733  2.418615  1.393193  2.150616
   H (  6)  4.295327  3.397144  2.149548  2.479296  1.080810
   C (  7)  3.871008  2.790850  2.410059  3.391972  1.393193  2.149548
   H (  8)  4.952317  3.872175  3.391972  4.288771  2.150616  2.479296
   C (  9)  3.401338  2.426535  2.790850  3.872175  2.418615  3.397144
   H ( 10)  4.286881  3.401338  3.871008  4.952317  3.401733  4.295327
   C ( 11)  2.147600  1.392202  2.400286  3.379101  2.775087  3.855897
   Br( 12)  2.943645  2.839095  4.139172  4.980755  4.659087  5.739897
             C (  7)   H (  8)   C (  9)   H ( 10)   C ( 11)
   H (  8)  1.081333
   C (  9)  1.393108  2.141702
   H ( 10)  2.157096  2.477901  1.080203
   C ( 11)  2.400286  3.379101  1.392202  2.147600
   Br( 12)  4.139172  4.980755  2.839095  2.943645  1.884001
 
 A cutoff of  1.0D-14 yielded   5718 shell pairs
 There are     34880 function pairs (     37255 Cartesian)
 
 -------------------------------------------------------
 OpenMP Integral Computing Module                       
 Release: version 1.0, May 2013, Q-Chem Inc. Pittsburgh 
 -------------------------------------------------------
 Integral Job Info:
 Integral job number is                      11
 Integral operator is                         1
 short-range coefficients                     0
 long-range coefficients              100000000
 Omega coefficients                           0
 if combine SR and LR in K                    0
 Integral screening is                        0
 Integral computing path is                   2
 max size of driver memory is            800000
 size of driver memory is                593474
 size of scratch memory is             29623520
 max col of scratch BK array               1296
 max len of scratch array in speh3          155
 max len of scratch index in speh4           18
 max int batch size is                      520
 min int batch size is                       52
 fixed nKL is                                45
 max L of basis functions is                  2
 order of int derivative is                   0
 number of shells is                        117
 number of basis is                         282
 number of cartesian basis is               282
 number of contracted shell pairs          5718
 number of primitive shell pairs           8629
 maxK2 (contraction) of shell pair           36
 max number of K2 of shell pair               1
 max number of CS2 of shell pair           1561
 max number of PS2 of shell pair           1561
 mem total for path MDJ                  548620
 -------------------------------------------------------
 Smallest overlap matrix eigenvalue = 9.84E-09
 Linear dependence detected in AO basis
 Number of orthogonalized atomic orbitals = 266
 Maximum deviation from orthogonality = 1.100E-10

 Scale SEOQF with 1.000000e-01/1.000000e-01/1.000000e-01

 Standard Electronic Orientation quadrupole field applied
 Nucleus-field energy     =    -0.0000000255 hartrees
 Guess MOs from core Hamiltonian diagonalization

 -----------------------------------------------------------------------
  General SCF calculation program by
  Eric Jon Sundstrom, Paul Horn, Yuezhi Mao, Dmitri Zuev, Alec White,
  David Stuck, Shaama M.S., Shane Yost, Joonho Lee, David Small,
  Daniel Levine, Susi Lehtola, Hugh Burton, Evgeny Epifanovsky
 -----------------------------------------------------------------------
 Hartree-Fock
 A restricted SCF calculation will be
 performed using DIIS
 SCF converges when DIIS error is below 1.0e-08
 ---------------------------------------
  Cycle       Energy         DIIS error
 ---------------------------------------
    1   -2383.9869314792      5.54e-01  
    2   -2189.8943844966      1.75e-01  
    3   -2232.7645986603      1.68e-01  
    4   -2744.6587078932      7.21e-02  
    5   -2754.5915806912      4.90e-02  
    6   -2780.8085580065      4.43e-02  
    7   -2798.4380702137      1.73e-02  
    8   -2802.0517031597      7.65e-03  
    9   -2802.5009432868      2.18e-03  
   10   -2802.5339509471      6.89e-04  
   11   -2802.5387879835      2.68e-04  
   12   -2802.5400377014      8.78e-05  
   13   -2802.5401761100      3.99e-05  
   14   -2802.5402470095      2.35e-05  
   15   -2802.5402732469      7.56e-06  
   16   -2802.5402759193      2.98e-06  
   17   -2802.5402761938      6.55e-07  
   18   -2802.5402762018      1.60e-07  
   19   -2802.5402762024      4.27e-08  
   20   -2802.5402762024      9.43e-09  Convergence criterion met
 ---------------------------------------
 SCF time:   CPU 418.84s  wall 43.00s 
 SCF   energy in the final basis set =    -2802.5402762024


 ------------------------------------------------------------------------------

   CCMAN2: suite of methods based on coupled cluster
           and equation of motion theories.

   Components:
   * libvmm-1.3-trunk
     by Evgeny Epifanovsky, Ilya Kaliman.
   * libtensor-2.5-trunk
     by Evgeny Epifanovsky, Michael Wormit, Dmitry Zuev, Sam Manzer, 
        Ilya Kaliman.
   * libcc-2.5-trunk
     by Evgeny Epifanovsky, Arik Landau, Tomasz Kus, Kirill Khistyaev, 
        Dmitry Zuev, Prashant Manohar, Xintian Feng, Anna Krylov, 
        Matthew Goldey, Alec White, Thomas Jagau, Kaushik Nanda, 
        Anastasia Gunina, Alexander Kunitsa, Joonho Lee.

   CCMAN original authors:
   Anna I. Krylov, C. David Sherrill, Steven R. Gwaltney,
   Edward F. C. Byrd (2000)
   Sergey V. Levchenko, Lyudmila V. Slipchenko, Tao Wang,
   Ana-Maria C. Cristian (2003)
   Piotr A. Pieniazek, C. Melania Oana, Evgeny Epifanovsky (2007)
   Prashant Manohar (2009)

 ------------------------------------------------------------------------------


 Calculation will run on 10 cores with 100000MB of RAM.

 
 Alpha MOs, Restricted
 -- Occupied --                  
-490.03  -65.16  -58.52  -58.52  -58.52  -11.30  -11.26  -11.26
  1 A1    2 A1    3 A1    1 B2    1 B1    4 A1    2 B1    5 A1                 
-11.254 -11.254 -11.251  -9.840  -7.454  -7.445  -7.445  -3.193
  6 A1    3 B1    7 A1    8 A1    9 A1    4 B1    2 B2   10 A1                 
 -3.189  -3.189  -3.179  -3.179  -1.180  -1.076  -1.036  -0.977
  3 B2    5 B1   11 A1    1 A2   12 A1   13 A1    6 B1   14 A1                 
 -0.849  -0.820  -0.714  -0.648  -0.647  -0.608  -0.578  -0.535
  7 B1   15 A1   16 A1    8 B1   17 A1    9 B1   18 A1    4 B2                 
 -0.518  -0.496  -0.440  -0.417  -0.354  -0.335
 10 B1   19 A1    5 B2   11 B1    2 A2    6 B2                                 
 -- Virtual --                   
  0.013   0.020   0.020   0.026   0.029   0.030   0.037   0.040
 20 A1   12 B1   21 A1    7 B2   13 B1   22 A1   23 A1    8 B2                 
  0.043   0.047   0.048   0.054   0.055   0.059   0.063   0.065
  3 A2   14 B1   24 A1    9 B2    4 A2   25 A1   15 B1   26 A1                 
  0.067   0.067   0.069   0.069   0.076   0.082   0.087   0.091
 16 B1   10 B2   27 A1   11 B2   17 B1   28 A1   29 A1   18 B1                 
  0.100   0.101   0.101   0.119   0.123   0.140   0.156   0.165
 12 B2    5 A2   30 A1   19 B1   31 A1   32 A1   13 B2   20 B1                 
  0.174   0.177   0.179   0.196   0.198   0.203   0.207   0.214
 14 B2   33 A1    6 A2   34 A1   21 B1   35 A1   15 B2   36 A1                 
  0.223   0.225   0.229   0.229   0.231   0.241   0.245   0.247
 22 B1   16 B2   37 A1   23 B1    7 A2   38 A1   17 B2   24 B1                 
  0.252   0.254   0.263   0.278   0.289   0.293   0.314   0.337
 39 A1   25 B1   40 A1   41 A1   26 B1   27 B1   42 A1   28 B1                 
  0.342   0.353   0.377   0.413   0.416   0.433   0.442   0.487
 43 A1   18 B2   44 A1   45 A1   29 B1   30 B1   46 A1   47 A1                 
  0.494   0.511   0.512   0.606   0.615   0.619   0.645   0.647
 31 B1   32 B1   48 A1   49 A1   33 B1   19 B2   34 B1   50 A1                 
  0.716   0.729   0.736   0.737   0.741   0.747   0.766   0.774
 51 A1   35 B1   20 B2   36 B1   52 A1   21 B2    8 A2   53 A1                 
  0.787   0.787   0.805   0.824   0.829   0.866   0.888   0.897
  9 A2   37 B1   22 B2   54 A1   10 A2   23 B2   55 A1   56 A1                 
  0.924   0.925   0.935   0.939   0.960   0.985   1.012   1.031
 38 B1   24 B2   57 A1   39 B1   58 A1   59 A1   40 B1   60 A1                 
  1.059   1.069   1.097   1.098   1.112   1.126   1.177   1.203
 41 B1   61 A1   42 B1   62 A1   63 A1   43 B1   44 B1   25 B2                 
  1.203   1.231   1.286   1.293   1.308   1.345   1.374   1.472
 64 A1   11 A2   65 A1   45 B1   12 A2   26 B2   13 A2   66 A1                 
  1.525   1.614   1.725   1.776   1.785   1.817   1.823   1.831
 27 B2   67 A1   46 B1   68 A1   47 B1   69 A1   28 B2   14 A2                 
  1.881   1.905   1.907   1.947   1.990   2.006   2.042   2.102
 29 B2   70 A1   48 B1   71 A1   49 B1   30 B2   15 A2   50 B1                 
  2.147   2.217   2.218   2.219   2.235   2.248   2.272   2.320
 72 A1   51 B1   31 B2   16 A2   52 B1   73 A1   32 B2   74 A1                 
  2.345   2.352   2.366   2.375   2.443   2.594   2.614   2.645
 75 A1   53 B1   17 A2   33 B2   54 B1   34 B2   76 A1   18 A2                 
  2.676   2.742   2.796   2.796   2.849   2.929   2.972   2.991
 55 B1   77 A1   78 A1   56 B1   57 B1   79 A1   80 A1   81 A1                 
  3.009   3.022   3.031   3.039   3.069   3.161   3.186   3.193
 58 B1   82 A1   83 A1   59 B1   35 B2   84 A1   36 B2   60 B1                 
  3.193   3.280   3.286   3.319   3.472   3.530   3.563   3.756
 19 A2   37 B2   20 A2   61 B1   38 B2   85 A1   62 B1   63 B1                 
  3.780   3.899   3.921   4.018   4.139   4.383   4.438   4.501
 86 A1   64 B1   87 A1   88 A1   89 A1   65 B1   90 A1   91 A1                 
  4.515   4.558   4.609   4.637   4.789   4.960   5.114   5.261
 66 B1   21 A2   92 A1   39 B2   67 B1   93 A1   94 A1   68 B1                 
  5.439   5.446   5.759   5.778   6.183   7.393   8.256   8.348
 95 A1   69 B1   96 A1   70 B1   97 A1   98 A1   40 B2   71 B1                 
  8.448  20.615  20.685  20.706  20.824  20.851  21.124  49.625
 99 A1  100 A1  101 A1   72 B1  102 A1   73 B1  103 A1  104 A1                 
 80.185  80.258  80.280  80.379  80.404  80.610 293.938 294.033
105 A1  106 A1   74 B1  107 A1   75 B1  108 A1   41 B2   76 B1                 
294.152 322.027 322.095 322.116 322.200 322.221 322.3881028.598
109 A1  110 A1  111 A1   77 B1  112 A1   78 B1  113 A1  114 A1                 
*******1431.6581431.6781431.7481431.7671431.9068749.8358749.890
115 A1  116 A1   79 B1  117 A1   80 B1  118 A1  119 A1  120 A1                 
*******8749.9638749.9808750.091
 81 B1  121 A1   82 B1  122 A1                                                 
 
 Beta MOs, Restricted
 -- Occupied --                  
-490.03  -65.16  -58.52  -58.52  -58.52  -11.30  -11.26  -11.26
  1 A1    2 A1    3 A1    1 B2    1 B1    4 A1    2 B1    5 A1                 
-11.254 -11.254 -11.251  -9.840  -7.454  -7.445  -7.445  -3.193
  6 A1    3 B1    7 A1    8 A1    9 A1    4 B1    2 B2   10 A1                 
 -3.189  -3.189  -3.179  -3.179  -1.180  -1.076  -1.036  -0.977
  3 B2    5 B1   11 A1    1 A2   12 A1   13 A1    6 B1   14 A1                 
 -0.849  -0.820  -0.714  -0.648  -0.647  -0.608  -0.578  -0.535
  7 B1   15 A1   16 A1    8 B1   17 A1    9 B1   18 A1    4 B2                 
 -0.518  -0.496  -0.440  -0.417  -0.354  -0.335
 10 B1   19 A1    5 B2   11 B1    2 A2    6 B2                                 
 -- Virtual --                   
  0.013   0.020   0.020   0.026   0.029   0.030   0.037   0.040
 20 A1   12 B1   21 A1    7 B2   13 B1   22 A1   23 A1    8 B2                 
  0.043   0.047   0.048   0.054   0.055   0.059   0.063   0.065
  3 A2   14 B1   24 A1    9 B2    4 A2   25 A1   15 B1   26 A1                 
  0.067   0.067   0.069   0.069   0.076   0.082   0.087   0.091
 16 B1   10 B2   27 A1   11 B2   17 B1   28 A1   29 A1   18 B1                 
  0.100   0.101   0.101   0.119   0.123   0.140   0.156   0.165
 12 B2    5 A2   30 A1   19 B1   31 A1   32 A1   13 B2   20 B1                 
  0.174   0.177   0.179   0.196   0.198   0.203   0.207   0.214
 14 B2   33 A1    6 A2   34 A1   21 B1   35 A1   15 B2   36 A1                 
  0.223   0.225   0.229   0.229   0.231   0.241   0.245   0.247
 22 B1   16 B2   37 A1   23 B1    7 A2   38 A1   17 B2   24 B1                 
  0.252   0.254   0.263   0.278   0.289   0.293   0.314   0.337
 39 A1   25 B1   40 A1   41 A1   26 B1   27 B1   42 A1   28 B1                 
  0.342   0.353   0.377   0.413   0.416   0.433   0.442   0.487
 43 A1   18 B2   44 A1   45 A1   29 B1   30 B1   46 A1   47 A1                 
  0.494   0.511   0.512   0.606   0.615   0.619   0.645   0.647
 31 B1   32 B1   48 A1   49 A1   33 B1   19 B2   34 B1   50 A1                 
  0.716   0.729   0.736   0.737   0.741   0.747   0.766   0.774
 51 A1   35 B1   20 B2   36 B1   52 A1   21 B2    8 A2   53 A1                 
  0.787   0.787   0.805   0.824   0.829   0.866   0.888   0.897
  9 A2   37 B1   22 B2   54 A1   10 A2   23 B2   55 A1   56 A1                 
  0.924   0.925   0.935   0.939   0.960   0.985   1.012   1.031
 38 B1   24 B2   57 A1   39 B1   58 A1   59 A1   40 B1   60 A1                 
  1.059   1.069   1.097   1.098   1.112   1.126   1.177   1.203
 41 B1   61 A1   42 B1   62 A1   63 A1   43 B1   44 B1   25 B2                 
  1.203   1.231   1.286   1.293   1.308   1.345   1.374   1.472
 64 A1   11 A2   65 A1   45 B1   12 A2   26 B2   13 A2   66 A1                 
  1.525   1.614   1.725   1.776   1.785   1.817   1.823   1.831
 27 B2   67 A1   46 B1   68 A1   47 B1   69 A1   28 B2   14 A2                 
  1.881   1.905   1.907   1.947   1.990   2.006   2.042   2.102
 29 B2   70 A1   48 B1   71 A1   49 B1   30 B2   15 A2   50 B1                 
  2.147   2.217   2.218   2.219   2.235   2.248   2.272   2.320
 72 A1   51 B1   31 B2   16 A2   52 B1   73 A1   32 B2   74 A1                 
  2.345   2.352   2.366   2.375   2.443   2.594   2.614   2.645
 75 A1   53 B1   17 A2   33 B2   54 B1   34 B2   76 A1   18 A2                 
  2.676   2.742   2.796   2.796   2.849   2.929   2.972   2.991
 55 B1   77 A1   78 A1   56 B1   57 B1   79 A1   80 A1   81 A1                 
  3.009   3.022   3.031   3.039   3.069   3.161   3.186   3.193
 58 B1   82 A1   83 A1   59 B1   35 B2   84 A1   36 B2   60 B1                 
  3.193   3.280   3.286   3.319   3.472   3.530   3.563   3.756
 19 A2   37 B2   20 A2   61 B1   38 B2   85 A1   62 B1   63 B1                 
  3.780   3.899   3.921   4.018   4.139   4.383   4.438   4.501
 86 A1   64 B1   87 A1   88 A1   89 A1   65 B1   90 A1   91 A1                 
  4.515   4.558   4.609   4.637   4.789   4.960   5.114   5.261
 66 B1   21 A2   92 A1   39 B2   67 B1   93 A1   94 A1   68 B1                 
  5.439   5.446   5.759   5.778   6.183   7.393   8.256   8.348
 95 A1   69 B1   96 A1   70 B1   97 A1   98 A1   40 B2   71 B1                 
  8.448  20.615  20.685  20.706  20.824  20.851  21.124  49.625
 99 A1  100 A1  101 A1   72 B1  102 A1   73 B1  103 A1  104 A1                 
 80.185  80.258  80.280  80.379  80.404  80.610 293.938 294.033
105 A1  106 A1   74 B1  107 A1   75 B1  108 A1   41 B2   76 B1                 
294.152 322.027 322.095 322.116 322.200 322.221 322.3881028.598
109 A1  110 A1  111 A1   77 B1  112 A1   78 B1  113 A1  114 A1                 
*******1431.6581431.6781431.7481431.7671431.9068749.8358749.890
115 A1  116 A1   79 B1  117 A1   80 B1  118 A1  119 A1  120 A1                 
*******8749.9638749.9808750.091
 81 B1  121 A1   82 B1  122 A1                                                 

 Occupation and symmetry of molecular orbitals

 Point group: C2v (4 irreducible representations).

                           A1   A2   B1   B2    All 
 ----------------------------------------------------
 All molecular orbitals:
  - Alpha                  122  21   82   41    266 
  - Beta                   122  21   82   41    266 
 ----------------------------------------------------
 Alpha orbitals:
  - Frozen occupied        4    0    2    1     7   
  - Active occupied        15   2    9    5     31  
  - Active virtual         103  19   71   35    228 
  - Frozen virtual         0    0    0    0     0   
 ----------------------------------------------------
 Beta orbitals:
  - Frozen occupied        4    0    2    1     7   
  - Active occupied        15   2    9    5     31  
  - Active virtual         103  19   71   35    228 
  - Frozen virtual         0    0    0    0     0   
 ----------------------------------------------------

 Import integrals:   CPU 0.00 s  wall 0.00 s

 Import integrals:   CPU 1385.06 s  wall 192.38 s

 MP2 amplitudes:   CPU 7.64 s  wall 5.81 s

           CCSD T amplitudes will be solved using DIIS.

           Start     Size      MaxIter   EConv     TConv     
           3         7         100       1.00e-06  1.00e-04  
 ------------------------------------------------------------------------------
           Energy (a.u.)   Ediff      Tdiff       Comment
 ------------------------------------------------------------------------------
         -2803.87938333                           
     1   -2803.83955963   3.98e-02   1.02e+00     
     2   -2803.87990366   4.03e-02   1.43e-01     
     3   -2803.87786984   2.03e-03   4.92e-02     
     4   -2803.88120395   3.33e-03   1.44e-02     Switched to DIIS steps.
     5   -2803.88218430   9.80e-04   1.19e-02     
     6   -2803.88218901   4.71e-06   2.20e-03     
     7   -2803.88218150   7.51e-06   1.10e-03     
     8   -2803.88218326   1.76e-06   2.14e-04     
     9   -2803.88218278   4.76e-07   8.04e-05     
 ------------------------------------------------------------------------------
         -2803.88218278                           CCSD T converged.

 SCF energy                 = -2802.54027620
 MP2 energy                 = -2803.87938333
 CCSD correlation energy     =    -1.34190658
 CCSD total energy           = -2803.88218278

 CCSD  T1^2 = 0.0086  T2^2 = 0.4137  Leading amplitudes:

 Amplitude    Orbitals with energies
  0.0181       2 (A2) A                  ->    8 (A2) A                   
              -0.3538                          0.7661                     
  0.0181       2 (A2) B                  ->    8 (A2) B                   
              -0.3538                          0.7661                     
 -0.0133       4 (B2) A                  ->    21 (B2) A                  
              -0.5346                          0.7475                     
 -0.0133       4 (B2) B                  ->    21 (B2) B                  
              -0.5346                          0.7475                     

 Amplitude    Orbitals with energies
 -0.0687       2 (A2) A      2 (A2) B    ->    5 (A2) A      5 (A2) B     
              -0.3538       -0.3538            0.1009        0.1009       
  0.0687       2 (A2) A      2 (A2) B    ->    5 (A2) B      5 (A2) A     
              -0.3538       -0.3538            0.1009        0.1009       
  0.0687       2 (A2) B      2 (A2) A    ->    5 (A2) A      5 (A2) B     
              -0.3538       -0.3538            0.1009        0.1009       
 -0.0687       2 (A2) B      2 (A2) A    ->    5 (A2) B      5 (A2) A     
              -0.3538       -0.3538            0.1009        0.1009       

 Computing CCSD intermediates for later calculations
 Finished.

           CCSD Lambda amplitudes will be solved using DIIS.
           Start     Size      MaxIter   EConv     LConv     
           3         7         100       1.00e-06  1.00e-04  
 ------------------------------------------------------------------------------
            Enorm      Ldiff       Comment
 ------------------------------------------------------------------------------
     1     5.94e-02   4.55e-02     
     2     1.14e-02   1.23e-03     
     3     3.88e-03   1.74e-03     
     4     1.59e-03   3.17e-04     Switched to DIIS steps.
     5     4.97e-04   3.13e-04     
     6     2.26e-04   7.66e-05     
     7     6.49e-05   2.87e-05     
     8     2.78e-05   4.32e-06     
     9     9.05e-06   9.66e-07     
    10     3.55e-06   8.43e-08     
    11     1.42e-06   1.45e-07     
    12     4.68e-07   8.67e-08     
 ------------------------------------------------------------------------------
                                   CCSD Lambda converged.

 CCSD calculation:   CPU 2469.46 s  wall 325.29 s

        Solving for EOMEE-CCSD A1 singlet states.

       EOMEE-CCSD-SINGLES right amplitudes will be solved using Davidson.
        Amplitudes will be solved using standard  algorithm.
     Hard-coded thresholds: 
     LinDepThresh=1.00e-15  NormThresh=1.00e-06  ReorthogonThresh=1.00e-02

      Roots     MaxVec    MaxIter   Precond   Conv      Shift    
      2         60        60        1         1.00e-05  0.00e+00  
 ------------------------------------------------------------------------------
      Iter ConvRoots NVecs ResNorm Current eigenvalues (eV)
 ------------------------------------------------------------------------------
      0    0      2     7.48e-04   9.5914   10.0224   
      1    0      4     4.33e-02   9.5462   9.9666   
      2    0      6     1.09e-03   9.2754   9.7526   
      3    0      8     1.56e-03   9.1988   9.6790   
      4    0      10    2.91e-03   9.1733   9.6195   
      5    0      12    3.99e-03   9.1362   9.4965   
      6    0      14    7.94e-04   9.1186   9.4421   
      7    0      16    1.30e-04   9.1143   9.4300   
      8    1      18    9.77e-06   9.1141*  9.4286   
      9    2      19    1.96e-06   9.1139*  9.4281*  

     Davidson procedure converged

 EOMEE transition 1/A1
 Total energy = -2803.54725249 a.u.  Excitation energy = 9.1139 eV.
 R1^2 = 1.0000  Res^2 = 9.19e-07
 Conv-d = yes

 Amplitude    Transitions between orbitals
  0.4556       6 (B2) A                  ->    7 (B2) A                   
  0.4556       6 (B2) B                  ->    7 (B2) B                   
  0.3266       6 (B2) A                  ->    12 (B2) A                  
  0.3266       6 (B2) B                  ->    12 (B2) B                  
  0.2393       2 (A2) A                  ->    5 (A2) A                   
  0.2393       2 (A2) B                  ->    5 (A2) B                   
  0.2370       6 (B2) A                  ->    10 (B2) A                  
  0.2370       6 (B2) B                  ->    10 (B2) B                  
 -0.1429       6 (B2) A                  ->    9 (B2) A                   
 -0.1429       6 (B2) B                  ->    9 (B2) B                   
 -0.1194       6 (B2) A                  ->    11 (B2) A                  
 -0.1194       6 (B2) B                  ->    11 (B2) B                  

              Summary of significant orbitals:

               Number  Type             Irrep      Energy
               37      Occ  Alpha       2 (A2)     -0.3538
               38      Occ  Alpha       6 (B2)     -0.3350
               37      Occ  Beta        2 (A2)     -0.3538
               38      Occ  Beta        6 (B2)     -0.3350
               64      Vir  Alpha       5 (A2)      0.1009
               42      Vir  Alpha       7 (B2)      0.0260
               50      Vir  Alpha       9 (B2)      0.0536
               56      Vir  Alpha      10 (B2)      0.0668
               58      Vir  Alpha      11 (B2)      0.0694
               63      Vir  Alpha      12 (B2)      0.0997
               64      Vir  Beta        5 (A2)      0.1009
               42      Vir  Beta        7 (B2)      0.0260
               50      Vir  Beta        9 (B2)      0.0536
               56      Vir  Beta       10 (B2)      0.0668
               58      Vir  Beta       11 (B2)      0.0694
               63      Vir  Beta       12 (B2)      0.0997


 EOMEE transition 2/A1
 Total energy = -2803.53570686 a.u.  Excitation energy = 9.4281 eV.
 R1^2 = 1.0000  Res^2 = 3.01e-06
 Conv-d = yes

 Amplitude    Transitions between orbitals
 -0.3801       6 (B2) A                  ->    7 (B2) A                   
 -0.3801       6 (B2) B                  ->    7 (B2) B                   
  0.3673       6 (B2) A                  ->    12 (B2) A                  
  0.3673       6 (B2) B                  ->    12 (B2) B                  
  0.2902       2 (A2) A                  ->    5 (A2) A                   
  0.2902       2 (A2) B                  ->    5 (A2) B                   
 -0.2811       6 (B2) A                  ->    8 (B2) A                   
 -0.2811       6 (B2) B                  ->    8 (B2) B                   
 -0.1053       6 (B2) A                  ->    10 (B2) A                  
 -0.1053       6 (B2) B                  ->    10 (B2) B                  
  0.1041       6 (B2) A                  ->    13 (B2) A                  
  0.1041       6 (B2) B                  ->    13 (B2) B                  

              Summary of significant orbitals:

               Number  Type             Irrep      Energy
               37      Occ  Alpha       2 (A2)     -0.3538
               38      Occ  Alpha       6 (B2)     -0.3350
               37      Occ  Beta        2 (A2)     -0.3538
               38      Occ  Beta        6 (B2)     -0.3350
               64      Vir  Alpha       5 (A2)      0.1009
               42      Vir  Alpha       7 (B2)      0.0260
               46      Vir  Alpha       8 (B2)      0.0396
               56      Vir  Alpha      10 (B2)      0.0668
               63      Vir  Alpha      12 (B2)      0.0997
               69      Vir  Alpha      13 (B2)      0.1565
               64      Vir  Beta        5 (A2)      0.1009
               42      Vir  Beta        7 (B2)      0.0260
               46      Vir  Beta        8 (B2)      0.0396
               56      Vir  Beta       10 (B2)      0.0668
               63      Vir  Beta       12 (B2)      0.0997
               69      Vir  Beta       13 (B2)      0.1565


        EOMEE-CCSD/MP2 right amplitudes will be solved using Davidson.
        Amplitudes will be solved using standard  algorithm.
     Hard-coded thresholds: 
     LinDepThresh=1.00e-15  NormThresh=1.00e-06  ReorthogonThresh=1.00e-02

      Roots     MaxVec    MaxIter   Precond   Conv      Shift    
      2         60        60        1         1.00e-05  0.00e+00  
 ------------------------------------------------------------------------------
      Iter ConvRoots NVecs ResNorm Current eigenvalues (eV)
 ------------------------------------------------------------------------------
      0    0      2     1.69e-01   9.1139   9.4281   
      1    0      4     6.79e+00   8.0704   8.7511   
      2    0      6     1.02e-01   6.4867   7.0889   
      3    0      8     5.25e-03   6.3697   7.0271   
      4    0      10    1.06e-02   6.3163   7.0125   
      5    0      12    6.47e-03   6.2975   7.0086   
      6    0      14    3.29e-04   6.2823   7.0073   
      7    0      16    1.20e-03   6.2772   7.0067   
      8    0      18    4.71e-04   6.2759   7.0064   
      9    0      20    1.02e-04   6.2745   7.0060   
      10   0      22    4.60e-04   6.2732   7.0053   
      11   0      24    1.03e-04   6.2732   7.0051   
      12   1      26    1.48e-05   6.2731*  7.0048   
      13   1      27    3.73e-05   6.2731*  7.0047   
      14   1      28    6.36e-06   6.2731*  7.0046   
      15   2      29    1.04e-06   6.2731*  7.0046*  

     Davidson procedure converged

 EOMEE transition 1/A1
 Total energy = -2803.65164930 a.u.  Excitation energy = 6.2731 eV.
 R0^2 = 0.0001  R1^2 = 0.9353  R2^2 = 0.0647  Res^2 = 5.53e-07
 Conv-d = yes

 Amplitude    Transitions between orbitals
  0.5528       6 (B2) A                  ->    12 (B2) A                  
  0.5528       6 (B2) B                  ->    12 (B2) B                  
  0.2594       2 (A2) A                  ->    5 (A2) A                   
  0.2594       2 (A2) B                  ->    5 (A2) B                   
  0.1397       6 (B2) A                  ->    7 (B2) A                   
  0.1397       6 (B2) B                  ->    7 (B2) B                   
 -0.1205       6 (B2) A                  ->    9 (B2) A                   
 -0.1205       6 (B2) B                  ->    9 (B2) B                   
  0.1097       6 (B2) A                  ->    10 (B2) A                  
  0.1097       6 (B2) B                  ->    10 (B2) B                  

              Summary of significant orbitals:

               Number  Type             Irrep      Energy
               37      Occ  Alpha       2 (A2)     -0.3538
               38      Occ  Alpha       6 (B2)     -0.3350
               37      Occ  Beta        2 (A2)     -0.3538
               38      Occ  Beta        6 (B2)     -0.3350
               64      Vir  Alpha       5 (A2)      0.1009
               42      Vir  Alpha       7 (B2)      0.0260
               50      Vir  Alpha       9 (B2)      0.0536
               56      Vir  Alpha      10 (B2)      0.0668
               63      Vir  Alpha      12 (B2)      0.0997
               64      Vir  Beta        5 (A2)      0.1009
               42      Vir  Beta        7 (B2)      0.0260
               50      Vir  Beta        9 (B2)      0.0536
               56      Vir  Beta       10 (B2)      0.0668
               63      Vir  Beta       12 (B2)      0.0997


 EOMEE transition 2/A1
 Total energy = -2803.62476872 a.u.  Excitation energy = 7.0046 eV.
 R0^2 = 0.0000  R1^2 = 0.9367  R2^2 = 0.0633  Res^2 = 1.52e-06
 Conv-d = yes

 Amplitude    Transitions between orbitals
 -0.5403       6 (B2) A                  ->    7 (B2) A                   
 -0.5403       6 (B2) B                  ->    7 (B2) B                   
 -0.2217       6 (B2) A                  ->    10 (B2) A                  
 -0.2217       6 (B2) B                  ->    10 (B2) B                  
 -0.2159       6 (B2) A                  ->    8 (B2) A                   
 -0.2159       6 (B2) B                  ->    8 (B2) B                   
  0.1537       6 (B2) A                  ->    13 (B2) A                  
  0.1537       6 (B2) B                  ->    13 (B2) B                  
  0.1494       6 (B2) A                  ->    12 (B2) A                  
  0.1494       6 (B2) B                  ->    12 (B2) B                  
 -0.1034       6 (B2) A                  ->    14 (B2) A                  
 -0.1034       6 (B2) B                  ->    14 (B2) B                  

              Summary of significant orbitals:

               Number  Type             Irrep      Energy
               38      Occ  Alpha       6 (B2)     -0.3350
               38      Occ  Beta        6 (B2)     -0.3350
               42      Vir  Alpha       7 (B2)      0.0260
               46      Vir  Alpha       8 (B2)      0.0396
               56      Vir  Alpha      10 (B2)      0.0668
               63      Vir  Alpha      12 (B2)      0.0997
               69      Vir  Alpha      13 (B2)      0.1565
               71      Vir  Alpha      14 (B2)      0.1737
               42      Vir  Beta        7 (B2)      0.0260
               46      Vir  Beta        8 (B2)      0.0396
               56      Vir  Beta       10 (B2)      0.0668
               63      Vir  Beta       12 (B2)      0.0997
               69      Vir  Beta       13 (B2)      0.1565
               71      Vir  Beta       14 (B2)      0.1737


      EOM-CCSD/MP2 left amplitudes will be solved using Davidson.
        Amplitudes will be solved using MOM  algorithm.
     Hard-coded thresholds: 
     LinDepThresh=1.00e-15  NormThresh=1.00e-06  ReorthogonThresh=1.00e-02

      Roots     MaxVec    MaxIter   Precond   Conv      Shift    
      2         60        60        1         1.00e-05  0.00e+00  
 ------------------------------------------------------------------------------
      Iter ConvRoots NVecs ResNorm Current eigenvalues (eV)
 ------------------------------------------------------------------------------
      0    0      2     6.24e-03   6.2731   7.0046   
      1    0      4     1.07e+00   6.2731   7.0046   
      2    0      6     6.22e-04   6.2731   7.0046   
      3    0      8     9.34e-04   6.2731   7.0046   
      4    0      10    7.20e-05   6.2731   7.0046   
      5    1      12    9.13e-06   6.2731   7.0046*  
      6    1      13    7.06e-06   6.2731   7.0046*  
      7    2      14    3.52e-06   6.2731*  7.0046*  

     Davidson procedure converged

        Solving for EOMEE-CCSD A2 singlet states.

       EOMEE-CCSD-SINGLES right amplitudes will be solved using Davidson.
        Amplitudes will be solved using standard  algorithm.
     Hard-coded thresholds: 
     LinDepThresh=1.00e-15  NormThresh=1.00e-06  ReorthogonThresh=1.00e-02

      Roots     MaxVec    MaxIter   Precond   Conv      Shift    
      2         60        60        1         1.00e-05  0.00e+00  
 ------------------------------------------------------------------------------
      Iter ConvRoots NVecs ResNorm Current eigenvalues (eV)
 ------------------------------------------------------------------------------
      0    0      2     5.59e-04   9.6010   10.0601   
      1    0      4     2.58e-02   9.5360   10.0012   
      2    0      6     5.44e-04   9.2870   9.7751   
      3    0      8     1.46e-04   9.2494   9.7132   
      4    0      10    5.19e-03   9.2445   9.5811   
      5    0      12    1.72e-03   9.1862   9.2590   
      6    0      14    3.89e-04   9.1446   9.2537   
      7    0      16    1.53e-04   9.1373   9.2531   
      8    1      18    3.51e-05   9.1356   9.2529*  
      9    1      19    7.97e-06   9.1354   9.2529*  
      10   2      20    1.88e-06   9.1353*  9.2529*  

     Davidson procedure converged

 EOMEE transition 1/A2
 Total energy = -2803.54646565 a.u.  Excitation energy = 9.1353 eV.
 R1^2 = 1.0000  Res^2 = 3.24e-06
 Conv-d = yes

 Amplitude    Transitions between orbitals
 -0.4884       2 (A2) A                  ->    20 (A1) A                  
 -0.4884       2 (A2) B                  ->    20 (A1) B                  
  0.3082       2 (A2) A                  ->    25 (A1) A                  
  0.3082       2 (A2) B                  ->    25 (A1) B                  
 -0.2345       2 (A2) A                  ->    28 (A1) A                  
 -0.2345       2 (A2) B                  ->    28 (A1) B                  
 -0.1802       2 (A2) A                  ->    22 (A1) A                  
 -0.1802       2 (A2) B                  ->    22 (A1) B                  
 -0.1286       6 (B2) A                  ->    12 (B1) A                  
 -0.1286       6 (B2) B                  ->    12 (B1) B                  

              Summary of significant orbitals:

               Number  Type             Irrep      Energy
               37      Occ  Alpha       2 (A2)     -0.3538
               38      Occ  Alpha       6 (B2)     -0.3350
               37      Occ  Beta        2 (A2)     -0.3538
               38      Occ  Beta        6 (B2)     -0.3350
               39      Vir  Alpha      20 (A1)      0.0132
               44      Vir  Alpha      22 (A1)      0.0297
               52      Vir  Alpha      25 (A1)      0.0587
               60      Vir  Alpha      28 (A1)      0.0816
               40      Vir  Alpha      12 (B1)      0.0201
               39      Vir  Beta       20 (A1)      0.0132
               44      Vir  Beta       22 (A1)      0.0297
               52      Vir  Beta       25 (A1)      0.0587
               60      Vir  Beta       28 (A1)      0.0816
               40      Vir  Beta       12 (B1)      0.0201


 EOMEE transition 2/A2
 Total energy = -2803.54214559 a.u.  Excitation energy = 9.2529 eV.
 R1^2 = 1.0000  Res^2 = 5.19e-07
 Conv-d = yes

 Amplitude    Transitions between orbitals
 -0.5900       6 (B2) A                  ->    12 (B1) A                  
 -0.5900       6 (B2) B                  ->    12 (B1) B                  
 -0.2036       6 (B2) A                  ->    15 (B1) A                  
 -0.2036       6 (B2) B                  ->    15 (B1) B                  
 -0.1466       6 (B2) A                  ->    18 (B1) A                  
 -0.1466       6 (B2) B                  ->    18 (B1) B                  
  0.1291       6 (B2) A                  ->    16 (B1) A                  
  0.1291       6 (B2) B                  ->    16 (B1) B                  
  0.1157       6 (B2) A                  ->    17 (B1) A                  
  0.1157       6 (B2) B                  ->    17 (B1) B                  
  0.1141       2 (A2) A                  ->    20 (A1) A                  
  0.1141       2 (A2) B                  ->    20 (A1) B                  

              Summary of significant orbitals:

               Number  Type             Irrep      Energy
               37      Occ  Alpha       2 (A2)     -0.3538
               38      Occ  Alpha       6 (B2)     -0.3350
               37      Occ  Beta        2 (A2)     -0.3538
               38      Occ  Beta        6 (B2)     -0.3350
               39      Vir  Alpha      20 (A1)      0.0132
               40      Vir  Alpha      12 (B1)      0.0201
               53      Vir  Alpha      15 (B1)      0.0630
               55      Vir  Alpha      16 (B1)      0.0668
               59      Vir  Alpha      17 (B1)      0.0763
               62      Vir  Alpha      18 (B1)      0.0908
               39      Vir  Beta       20 (A1)      0.0132
               40      Vir  Beta       12 (B1)      0.0201
               53      Vir  Beta       15 (B1)      0.0630
               55      Vir  Beta       16 (B1)      0.0668
               59      Vir  Beta       17 (B1)      0.0763
               62      Vir  Beta       18 (B1)      0.0908


        EOMEE-CCSD/MP2 right amplitudes will be solved using Davidson.
        Amplitudes will be solved using standard  algorithm.
     Hard-coded thresholds: 
     LinDepThresh=1.00e-15  NormThresh=1.00e-06  ReorthogonThresh=1.00e-02

      Roots     MaxVec    MaxIter   Precond   Conv      Shift    
      2         60        60        1         1.00e-05  0.00e+00  
 ------------------------------------------------------------------------------
      Iter ConvRoots NVecs ResNorm Current eigenvalues (eV)
 ------------------------------------------------------------------------------
      0    0      2     1.24e-01   9.1353   9.2529   
      1    0      4     1.63e+01   8.6432   8.7271   
      2    0      6     6.39e-02   6.8357   6.9450   
      3    0      8     4.96e-03   6.7550   6.8750   
      4    0      10    3.82e-03   6.7302   6.8514   
      5    0      12    2.10e-03   6.7178   6.8414   
      6    0      14    3.22e-04   6.7071   6.8383   
      7    0      16    3.64e-04   6.7039   6.8369   
      8    0      18    3.70e-04   6.7009   6.8366   
      9    0      20    3.69e-05   6.6994   6.8359   
      10   0      22    4.73e-05   6.6988   6.8356   
      11   0      24    1.41e-05   6.6989   6.8356   
      12   2      26    1.88e-06   6.6988*  6.8357*  

     Davidson procedure converged

 EOMEE transition 1/A2
 Total energy = -2803.63600607 a.u.  Excitation energy = 6.6988 eV.
 R0^2 = 0.0000  R1^2 = 0.9318  R2^2 = 0.0682  Res^2 = 2.65e-06
 Conv-d = yes

 Amplitude    Transitions between orbitals
 -0.4408       2 (A2) A                  ->    20 (A1) A                  
 -0.4408       2 (A2) B                  ->    20 (A1) B                  
  0.2861       2 (A2) A                  ->    25 (A1) A                  
  0.2861       2 (A2) B                  ->    25 (A1) B                  
 -0.2617       2 (A2) A                  ->    28 (A1) A                  
 -0.2617       2 (A2) B                  ->    28 (A1) B                  
 -0.1645       2 (A2) A                  ->    22 (A1) A                  
 -0.1645       2 (A2) B                  ->    22 (A1) B                  
  0.1310       2 (A2) A                  ->    29 (A1) A                  
  0.1310       2 (A2) B                  ->    29 (A1) B                  
  0.1184       2 (A2) A                  ->    36 (A1) A                  
  0.1184       2 (A2) B                  ->    36 (A1) B                  

              Summary of significant orbitals:

               Number  Type             Irrep      Energy
               37      Occ  Alpha       2 (A2)     -0.3538
               37      Occ  Beta        2 (A2)     -0.3538
               39      Vir  Alpha      20 (A1)      0.0132
               44      Vir  Alpha      22 (A1)      0.0297
               52      Vir  Alpha      25 (A1)      0.0587
               60      Vir  Alpha      28 (A1)      0.0816
               61      Vir  Alpha      29 (A1)      0.0865
               78      Vir  Alpha      36 (A1)      0.2140
               39      Vir  Beta       20 (A1)      0.0132
               44      Vir  Beta       22 (A1)      0.0297
               52      Vir  Beta       25 (A1)      0.0587
               60      Vir  Beta       28 (A1)      0.0816
               61      Vir  Beta       29 (A1)      0.0865
               78      Vir  Beta       36 (A1)      0.2140


 EOMEE transition 2/A2
 Total energy = -2803.63097693 a.u.  Excitation energy = 6.8357 eV.
 R0^2 = 0.0000  R1^2 = 0.9334  R2^2 = 0.0666  Res^2 = 1.12e-06
 Conv-d = yes

 Amplitude    Transitions between orbitals
 -0.5540       6 (B2) A                  ->    12 (B1) A                  
 -0.5540       6 (B2) B                  ->    12 (B1) B                  
 -0.2166       6 (B2) A                  ->    15 (B1) A                  
 -0.2166       6 (B2) B                  ->    15 (B1) B                  
 -0.2102       6 (B2) A                  ->    18 (B1) A                  
 -0.2102       6 (B2) B                  ->    18 (B1) B                  
  0.1470       6 (B2) A                  ->    16 (B1) A                  
  0.1470       6 (B2) B                  ->    16 (B1) B                  
  0.1020       6 (B2) A                  ->    17 (B1) A                  
  0.1020       6 (B2) B                  ->    17 (B1) B                  

              Summary of significant orbitals:

               Number  Type             Irrep      Energy
               38      Occ  Alpha       6 (B2)     -0.3350
               38      Occ  Beta        6 (B2)     -0.3350
               40      Vir  Alpha      12 (B1)      0.0201
               53      Vir  Alpha      15 (B1)      0.0630
               55      Vir  Alpha      16 (B1)      0.0668
               59      Vir  Alpha      17 (B1)      0.0763
               62      Vir  Alpha      18 (B1)      0.0908
               40      Vir  Beta       12 (B1)      0.0201
               53      Vir  Beta       15 (B1)      0.0630
               55      Vir  Beta       16 (B1)      0.0668
               59      Vir  Beta       17 (B1)      0.0763
               62      Vir  Beta       18 (B1)      0.0908


      EOM-CCSD/MP2 left amplitudes will be solved using Davidson.
        Amplitudes will be solved using MOM  algorithm.
     Hard-coded thresholds: 
     LinDepThresh=1.00e-15  NormThresh=1.00e-06  ReorthogonThresh=1.00e-02

      Roots     MaxVec    MaxIter   Precond   Conv      Shift    
      2         60        60        1         1.00e-05  0.00e+00  
 ------------------------------------------------------------------------------
      Iter ConvRoots NVecs ResNorm Current eigenvalues (eV)
 ------------------------------------------------------------------------------
      0    0      2     4.85e-03   6.6988   6.8357   
      1    0      4     1.88e+00   6.6988   6.8356   
      2    0      6     2.52e-04   6.6988   6.8356   
      3    0      8     1.06e-03   6.6988   6.8356   
      4    0      10    3.57e-05   6.6988   6.8356   
      5    1      12    7.11e-06   6.6988   6.8356*  
      6    2      13    6.30e-06   6.6988*  6.8356*  

     Davidson procedure converged

        Solving for EOMEE-CCSD B1 singlet states.

       EOMEE-CCSD-SINGLES right amplitudes will be solved using Davidson.
        Amplitudes will be solved using standard  algorithm.
     Hard-coded thresholds: 
     LinDepThresh=1.00e-15  NormThresh=1.00e-06  ReorthogonThresh=1.00e-02

      Roots     MaxVec    MaxIter   Precond   Conv      Shift    
      2         60        60        1         1.00e-05  0.00e+00  
 ------------------------------------------------------------------------------
      Iter ConvRoots NVecs ResNorm Current eigenvalues (eV)
 ------------------------------------------------------------------------------
      0    0      2     5.67e-04   10.0290   10.2768   
      1    0      4     2.58e-02   9.9950   10.1111   
      2    0      6     2.11e-03   9.7588   9.9054   
      3    0      8     1.07e-03   9.7222   9.8894   
      4    0      10    2.93e-03   9.6880   9.8800   
      5    0      12    2.50e-03   9.4239   9.7739   
      6    0      14    1.08e-03   9.2874   9.7444   
      7    0      16    2.94e-04   9.2650   9.7372   
      8    0      18    1.56e-03   9.2629   9.7230   
      9    0      20    3.23e-03   9.2623   9.6998   
      10   0      22    2.14e-03   9.2618   9.6532   
      11   1      24    4.06e-04   9.2617*  9.6312   
      12   1      25    1.30e-04   9.2617*  9.6282   
      13   1      26    2.04e-05   9.2617*  9.6280   
      14   2      27    4.02e-06   9.2617*  9.6280*  

     Davidson procedure converged

 EOMEE transition 1/B1
 Total energy = -2803.54182259 a.u.  Excitation energy = 9.2617 eV.
 R1^2 = 1.0000  Res^2 = 1.80e-06
 Conv-d = yes

 Amplitude    Transitions between orbitals
 -0.5169       6 (B2) A                  ->    5 (A2) A                   
 -0.5169       6 (B2) B                  ->    5 (A2) B                   
  0.3871       2 (A2) A                  ->    12 (B2) A                  
  0.3871       2 (A2) B                  ->    12 (B2) B                  
 -0.1887       6 (B2) A                  ->    4 (A2) A                   
 -0.1887       6 (B2) B                  ->    4 (A2) B                   

              Summary of significant orbitals:

               Number  Type             Irrep      Energy
               37      Occ  Alpha       2 (A2)     -0.3538
               38      Occ  Alpha       6 (B2)     -0.3350
               37      Occ  Beta        2 (A2)     -0.3538
               38      Occ  Beta        6 (B2)     -0.3350
               51      Vir  Alpha       4 (A2)      0.0553
               64      Vir  Alpha       5 (A2)      0.1009
               63      Vir  Alpha      12 (B2)      0.0997
               51      Vir  Beta        4 (A2)      0.0553
               64      Vir  Beta        5 (A2)      0.1009
               63      Vir  Beta       12 (B2)      0.0997


 EOMEE transition 2/B1
 Total energy = -2803.52836131 a.u.  Excitation energy = 9.6280 eV.
 R1^2 = 1.0000  Res^2 = 6.24e-06
 Conv-d = yes

 Amplitude    Transitions between orbitals
 -0.2984       11 (B1) A                 ->    32 (A1) A                  
 -0.2984       11 (B1) B                 ->    32 (A1) B                  
  0.2724       11 (B1) A                 ->    21 (A1) A                  
  0.2724       11 (B1) B                 ->    21 (A1) B                  
  0.2718       11 (B1) A                 ->    26 (A1) A                  
  0.2718       11 (B1) B                 ->    26 (A1) B                  
 -0.2329       11 (B1) A                 ->    28 (A1) A                  
 -0.2329       11 (B1) B                 ->    28 (A1) B                  
  0.2137       11 (B1) A                 ->    31 (A1) A                  
  0.2137       11 (B1) B                 ->    31 (A1) B                  
 -0.1581       11 (B1) A                 ->    22 (A1) A                  
 -0.1581       11 (B1) B                 ->    22 (A1) B                  
 -0.1468       11 (B1) A                 ->    25 (A1) A                  
 -0.1468       11 (B1) B                 ->    25 (A1) B                  
 -0.1264       11 (B1) A                 ->    30 (A1) A                  
 -0.1264       11 (B1) B                 ->    30 (A1) B                  
  0.1246       11 (B1) A                 ->    34 (A1) A                  
  0.1246       11 (B1) B                 ->    34 (A1) B                  
  0.1228       11 (B1) A                 ->    33 (A1) A                  
  0.1228       11 (B1) B                 ->    33 (A1) B                  
  0.1226       11 (B1) A                 ->    36 (A1) A                  
  0.1226       11 (B1) B                 ->    36 (A1) B                  
  0.1206       11 (B1) A                 ->    29 (A1) A                  
  0.1206       11 (B1) B                 ->    29 (A1) B                  
  0.1200       11 (B1) A                 ->    20 (A1) A                  
  0.1200       11 (B1) B                 ->    20 (A1) B                  

              Summary of significant orbitals:

               Number  Type             Irrep      Energy
               36      Occ  Alpha      11 (B1)     -0.4171
               36      Occ  Beta       11 (B1)     -0.4171
               39      Vir  Alpha      20 (A1)      0.0132
               41      Vir  Alpha      21 (A1)      0.0204
               44      Vir  Alpha      22 (A1)      0.0297
               52      Vir  Alpha      25 (A1)      0.0587
               54      Vir  Alpha      26 (A1)      0.0654
               60      Vir  Alpha      28 (A1)      0.0816
               61      Vir  Alpha      29 (A1)      0.0865
               65      Vir  Alpha      30 (A1)      0.1014
               67      Vir  Alpha      31 (A1)      0.1233
               68      Vir  Alpha      32 (A1)      0.1397
               72      Vir  Alpha      33 (A1)      0.1769
               74      Vir  Alpha      34 (A1)      0.1956
               78      Vir  Alpha      36 (A1)      0.2140
               39      Vir  Beta       20 (A1)      0.0132
               41      Vir  Beta       21 (A1)      0.0204
               44      Vir  Beta       22 (A1)      0.0297
               52      Vir  Beta       25 (A1)      0.0587
               54      Vir  Beta       26 (A1)      0.0654
               60      Vir  Beta       28 (A1)      0.0816
               61      Vir  Beta       29 (A1)      0.0865
               65      Vir  Beta       30 (A1)      0.1014
               67      Vir  Beta       31 (A1)      0.1233
               68      Vir  Beta       32 (A1)      0.1397
               72      Vir  Beta       33 (A1)      0.1769
               74      Vir  Beta       34 (A1)      0.1956
               78      Vir  Beta       36 (A1)      0.2140


        EOMEE-CCSD/MP2 right amplitudes will be solved using Davidson.
        Amplitudes will be solved using standard  algorithm.
     Hard-coded thresholds: 
     LinDepThresh=1.00e-15  NormThresh=1.00e-06  ReorthogonThresh=1.00e-02

      Roots     MaxVec    MaxIter   Precond   Conv      Shift    
      2         60        60        1         1.00e-05  0.00e+00  
 ------------------------------------------------------------------------------
      Iter ConvRoots NVecs ResNorm Current eigenvalues (eV)
 ------------------------------------------------------------------------------
      0    0      2     2.36e-01   9.2617   9.6280   
      1    0      4     7.31e+00   7.4983   9.3044   
      2    0      6     2.08e-01   5.3374   7.2958   
      3    0      8     1.73e-02   5.1225   7.1645   
      4    0      10    8.91e-03   5.0839   7.0809   
      5    0      12    5.31e-03   5.0777   7.0333   
      6    0      14    5.30e-04   5.0766   7.0069   
      7    0      16    5.55e-04   5.0757   6.9900   
      8    0      18    2.85e-04   5.0756   6.9826   
      9    1      20    3.80e-05   5.0754*  6.9796   
      10   1      21    1.49e-05   5.0754*  6.9780   
      11   2      22    4.42e-06   5.0754*  6.9778*  

     Davidson procedure converged

 EOMEE transition 1/B1
 Total energy = -2803.69566480 a.u.  Excitation energy = 5.0754 eV.
 R0^2 = 0.0000  R1^2 = 0.8978  R2^2 = 0.1022  Res^2 = 2.12e-06
 Conv-d = yes

 Amplitude    Transitions between orbitals
 -0.4799       6 (B2) A                  ->    5 (A2) A                   
 -0.4799       6 (B2) B                  ->    5 (A2) B                   
  0.3900       2 (A2) A                  ->    12 (B2) A                  
  0.3900       2 (A2) B                  ->    12 (B2) B                  
 -0.1351       6 (B2) A                  ->    7 (A2) A                   
 -0.1351       6 (B2) B                  ->    7 (A2) B                   

              Summary of significant orbitals:

               Number  Type             Irrep      Energy
               37      Occ  Alpha       2 (A2)     -0.3538
               38      Occ  Alpha       6 (B2)     -0.3350
               37      Occ  Beta        2 (A2)     -0.3538
               38      Occ  Beta        6 (B2)     -0.3350
               64      Vir  Alpha       5 (A2)      0.1009
               83      Vir  Alpha       7 (A2)      0.2305
               63      Vir  Alpha      12 (B2)      0.0997
               64      Vir  Beta        5 (A2)      0.1009
               83      Vir  Beta        7 (A2)      0.2305
               63      Vir  Beta       12 (B2)      0.0997


 EOMEE transition 2/B1
 Total energy = -2803.62575239 a.u.  Excitation energy = 6.9778 eV.
 R0^2 = 0.0000  R1^2 = 0.9421  R2^2 = 0.0579  Res^2 = 6.72e-06
 Conv-d = yes

 Amplitude    Transitions between orbitals
 -0.3403       11 (B1) A                 ->    32 (A1) A                  
 -0.3403       11 (B1) B                 ->    32 (A1) B                  
  0.2833       11 (B1) A                 ->    31 (A1) A                  
  0.2833       11 (B1) B                 ->    31 (A1) B                  
 -0.2473       11 (B1) A                 ->    28 (A1) A                  
 -0.2473       11 (B1) B                 ->    28 (A1) B                  
  0.2188       11 (B1) A                 ->    36 (A1) A                  
  0.2188       11 (B1) B                 ->    36 (A1) B                  
  0.1737       11 (B1) A                 ->    34 (A1) A                  
  0.1737       11 (B1) B                 ->    34 (A1) B                  
 -0.1387       11 (B1) A                 ->    30 (A1) A                  
 -0.1387       11 (B1) B                 ->    30 (A1) B                  
 -0.1267       11 (B1) A                 ->    22 (A1) A                  
 -0.1267       11 (B1) B                 ->    22 (A1) B                  
  0.1204       11 (B1) A                 ->    26 (A1) A                  
  0.1204       11 (B1) B                 ->    26 (A1) B                  
  0.1186       11 (B1) A                 ->    21 (A1) A                  
  0.1186       11 (B1) B                 ->    21 (A1) B                  
  0.1051       11 (B1) A                 ->    29 (A1) A                  
  0.1051       11 (B1) B                 ->    29 (A1) B                  
 -0.1019       11 (B1) A                 ->    39 (A1) A                  
 -0.1019       11 (B1) B                 ->    39 (A1) B                  

              Summary of significant orbitals:

               Number  Type             Irrep      Energy
               36      Occ  Alpha      11 (B1)     -0.4171
               36      Occ  Beta       11 (B1)     -0.4171
               41      Vir  Alpha      21 (A1)      0.0204
               44      Vir  Alpha      22 (A1)      0.0297
               54      Vir  Alpha      26 (A1)      0.0654
               60      Vir  Alpha      28 (A1)      0.0816
               61      Vir  Alpha      29 (A1)      0.0865
               65      Vir  Alpha      30 (A1)      0.1014
               67      Vir  Alpha      31 (A1)      0.1233
               68      Vir  Alpha      32 (A1)      0.1397
               74      Vir  Alpha      34 (A1)      0.1956
               78      Vir  Alpha      36 (A1)      0.2140
               87      Vir  Alpha      39 (A1)      0.2522
               41      Vir  Beta       21 (A1)      0.0204
               44      Vir  Beta       22 (A1)      0.0297
               54      Vir  Beta       26 (A1)      0.0654
               60      Vir  Beta       28 (A1)      0.0816
               61      Vir  Beta       29 (A1)      0.0865
               65      Vir  Beta       30 (A1)      0.1014
               67      Vir  Beta       31 (A1)      0.1233
               68      Vir  Beta       32 (A1)      0.1397
               74      Vir  Beta       34 (A1)      0.1956
               78      Vir  Beta       36 (A1)      0.2140
               87      Vir  Beta       39 (A1)      0.2522


      EOM-CCSD/MP2 left amplitudes will be solved using Davidson.
        Amplitudes will be solved using MOM  algorithm.
     Hard-coded thresholds: 
     LinDepThresh=1.00e-15  NormThresh=1.00e-06  ReorthogonThresh=1.00e-02

      Roots     MaxVec    MaxIter   Precond   Conv      Shift    
      2         60        60        1         1.00e-05  0.00e+00  
 ------------------------------------------------------------------------------
      Iter ConvRoots NVecs ResNorm Current eigenvalues (eV)
 ------------------------------------------------------------------------------
      0    0      2     7.78e-03   5.0754   6.9778   
      1    0      4     7.68e-01   5.0754   6.9779   
      2    0      6     3.95e-03   5.0754   6.9779   
      3    0      8     6.20e-04   5.0753   6.9779   
      4    0      10    1.20e-04   5.0753   6.9779   
      5    2      12    4.83e-06   5.0753*  6.9779*  

     Davidson procedure converged

        Solving for EOMEE-CCSD B2 singlet states.

       EOMEE-CCSD-SINGLES right amplitudes will be solved using Davidson.
        Amplitudes will be solved using standard  algorithm.
     Hard-coded thresholds: 
     LinDepThresh=1.00e-15  NormThresh=1.00e-06  ReorthogonThresh=1.00e-02

      Roots     MaxVec    MaxIter   Precond   Conv      Shift    
      2         60        60        1         1.00e-05  0.00e+00  
 ------------------------------------------------------------------------------
      Iter ConvRoots NVecs ResNorm Current eigenvalues (eV)
 ------------------------------------------------------------------------------
      0    0      2     8.68e-04   9.3017   9.6580   
      1    0      4     1.58e-01   9.1883   9.5472   
      2    0      6     4.06e-03   8.7503   9.1193   
      3    0      8     2.20e-03   8.6595   9.0030   
      4    0      10    4.68e-03   8.6402   8.9394   
      5    0      12    5.50e-03   8.6341   8.8840   
      6    0      14    2.85e-03   8.6323   8.8598   
      7    0      16    1.21e-03   8.6318   8.8516   
      8    0      18    4.15e-04   8.6317   8.8501   
      9    1      20    5.15e-05   8.6317*  8.8499   
      10   2      21    3.70e-06   8.6317*  8.8499*  

     Davidson procedure converged

 EOMEE transition 1/B2
 Total energy = -2803.56497371 a.u.  Excitation energy = 8.6317 eV.
 R1^2 = 1.0000  Res^2 = 2.11e-07
 Conv-d = yes

 Amplitude    Transitions between orbitals
  0.4882       6 (B2) A                  ->    20 (A1) A                  
  0.4882       6 (B2) B                  ->    20 (A1) B                  
 -0.2872       6 (B2) A                  ->    25 (A1) A                  
 -0.2872       6 (B2) B                  ->    25 (A1) B                  
  0.2323       6 (B2) A                  ->    28 (A1) A                  
  0.2323       6 (B2) B                  ->    28 (A1) B                  
  0.1459       6 (B2) A                  ->    22 (A1) A                  
  0.1459       6 (B2) B                  ->    22 (A1) B                  
  0.1438       6 (B2) A                  ->    26 (A1) A                  
  0.1438       6 (B2) B                  ->    26 (A1) B                  
  0.1092       6 (B2) A                  ->    23 (A1) A                  
  0.1092       6 (B2) B                  ->    23 (A1) B                  

              Summary of significant orbitals:

               Number  Type             Irrep      Energy
               38      Occ  Alpha       6 (B2)     -0.3350
               38      Occ  Beta        6 (B2)     -0.3350
               39      Vir  Alpha      20 (A1)      0.0132
               44      Vir  Alpha      22 (A1)      0.0297
               45      Vir  Alpha      23 (A1)      0.0365
               52      Vir  Alpha      25 (A1)      0.0587
               54      Vir  Alpha      26 (A1)      0.0654
               60      Vir  Alpha      28 (A1)      0.0816
               39      Vir  Beta       20 (A1)      0.0132
               44      Vir  Beta       22 (A1)      0.0297
               45      Vir  Beta       23 (A1)      0.0365
               52      Vir  Beta       25 (A1)      0.0587
               54      Vir  Beta       26 (A1)      0.0654
               60      Vir  Beta       28 (A1)      0.0816


 EOMEE transition 2/B2
 Total energy = -2803.55695586 a.u.  Excitation energy = 8.8499 eV.
 R1^2 = 1.0000  Res^2 = 7.20e-06
 Conv-d = yes

 Amplitude    Transitions between orbitals
 -0.3548       6 (B2) A                  ->    21 (A1) A                  
 -0.3548       6 (B2) B                  ->    21 (A1) B                  
 -0.2452       6 (B2) A                  ->    26 (A1) A                  
 -0.2452       6 (B2) B                  ->    26 (A1) B                  
  0.1934       6 (B2) A                  ->    28 (A1) A                  
  0.1934       6 (B2) B                  ->    28 (A1) B                  
  0.1933       6 (B2) A                  ->    32 (A1) A                  
  0.1933       6 (B2) B                  ->    32 (A1) B                  
 -0.1769       6 (B2) A                  ->    31 (A1) A                  
 -0.1769       6 (B2) B                  ->    31 (A1) B                  
 -0.1579       6 (B2) A                  ->    29 (A1) A                  
 -0.1579       6 (B2) B                  ->    29 (A1) B                  
  0.1503       6 (B2) A                  ->    22 (A1) A                  
  0.1503       6 (B2) B                  ->    22 (A1) B                  
 -0.1287       5 (B2) A                  ->    32 (A1) A                  
 -0.1287       5 (B2) B                  ->    32 (A1) B                  
  0.1261       5 (B2) A                  ->    26 (A1) A                  
  0.1261       5 (B2) B                  ->    26 (A1) B                  
  0.1202       6 (B2) A                  ->    30 (A1) A                  
  0.1202       6 (B2) B                  ->    30 (A1) B                  
 -0.1147       6 (B2) A                  ->    36 (A1) A                  
 -0.1147       6 (B2) B                  ->    36 (A1) B                  
 -0.1113       6 (B2) A                  ->    34 (A1) A                  
 -0.1113       6 (B2) B                  ->    34 (A1) B                  
  0.1078       5 (B2) A                  ->    21 (A1) A                  
  0.1078       5 (B2) B                  ->    21 (A1) B                  

              Summary of significant orbitals:

               Number  Type             Irrep      Energy
               35      Occ  Alpha       5 (B2)     -0.4400
               38      Occ  Alpha       6 (B2)     -0.3350
               35      Occ  Beta        5 (B2)     -0.4400
               38      Occ  Beta        6 (B2)     -0.3350
               41      Vir  Alpha      21 (A1)      0.0204
               44      Vir  Alpha      22 (A1)      0.0297
               54      Vir  Alpha      26 (A1)      0.0654
               60      Vir  Alpha      28 (A1)      0.0816
               61      Vir  Alpha      29 (A1)      0.0865
               65      Vir  Alpha      30 (A1)      0.1014
               67      Vir  Alpha      31 (A1)      0.1233
               68      Vir  Alpha      32 (A1)      0.1397
               74      Vir  Alpha      34 (A1)      0.1956
               78      Vir  Alpha      36 (A1)      0.2140
               41      Vir  Beta       21 (A1)      0.0204
               44      Vir  Beta       22 (A1)      0.0297
               54      Vir  Beta       26 (A1)      0.0654
               60      Vir  Beta       28 (A1)      0.0816
               61      Vir  Beta       29 (A1)      0.0865
               65      Vir  Beta       30 (A1)      0.1014
               67      Vir  Beta       31 (A1)      0.1233
               68      Vir  Beta       32 (A1)      0.1397
               74      Vir  Beta       34 (A1)      0.1956
               78      Vir  Beta       36 (A1)      0.2140


        EOMEE-CCSD/MP2 right amplitudes will be solved using Davidson.
        Amplitudes will be solved using standard  algorithm.
     Hard-coded thresholds: 
     LinDepThresh=1.00e-15  NormThresh=1.00e-06  ReorthogonThresh=1.00e-02

      Roots     MaxVec    MaxIter   Precond   Conv      Shift    
      2         60        60        1         1.00e-05  0.00e+00  
 ------------------------------------------------------------------------------
      Iter ConvRoots NVecs ResNorm Current eigenvalues (eV)
 ------------------------------------------------------------------------------
      0    0      2     1.68e-01   8.6317   8.8499   
      1    0      4     8.90e+00   8.2117   8.5223   
      2    0      6     7.08e-02   6.1875   6.5054   
      3    0      8     5.19e-03   6.0675   6.4100   
      4    0      10    9.55e-03   6.0065   6.3655   
      5    0      12    2.40e-03   5.9794   6.3461   
      6    0      14    3.21e-04   5.9666   6.3377   
      7    0      16    7.38e-04   5.9602   6.3315   
      8    0      18    4.03e-04   5.9571   6.3275   
      9    0      20    5.28e-05   5.9561   6.3257   
      10   0      22    3.61e-05   5.9553   6.3240   
      11   1      24    2.11e-05   5.9552*  6.3239   
      12   2      25    2.79e-06   5.9552*  6.3238*  

     Davidson procedure converged

 EOMEE transition 1/B2
 Total energy = -2803.66333491 a.u.  Excitation energy = 5.9552 eV.
 R0^2 = 0.0000  R1^2 = 0.9312  R2^2 = 0.0688  Res^2 = 1.34e-06
 Conv-d = yes

 Amplitude    Transitions between orbitals
 -0.2871       6 (B2) A                  ->    28 (A1) A                  
 -0.2871       6 (B2) B                  ->    28 (A1) B                  
  0.2545       6 (B2) A                  ->    31 (A1) A                  
  0.2545       6 (B2) B                  ->    31 (A1) B                  
 -0.2480       6 (B2) A                  ->    32 (A1) A                  
 -0.2480       6 (B2) B                  ->    32 (A1) B                  
 -0.2101       6 (B2) A                  ->    20 (A1) A                  
 -0.2101       6 (B2) B                  ->    20 (A1) B                  
  0.2038       6 (B2) A                  ->    36 (A1) A                  
  0.2038       6 (B2) B                  ->    36 (A1) B                  
 -0.1599       6 (B2) A                  ->    22 (A1) A                  
 -0.1599       6 (B2) B                  ->    22 (A1) B                  
 -0.1260       6 (B2) A                  ->    30 (A1) A                  
 -0.1260       6 (B2) B                  ->    30 (A1) B                  
  0.1244       6 (B2) A                  ->    29 (A1) A                  
  0.1244       6 (B2) B                  ->    29 (A1) B                  
  0.1202       6 (B2) A                  ->    34 (A1) A                  
  0.1202       6 (B2) B                  ->    34 (A1) B                  
  0.1062       5 (B2) A                  ->    32 (A1) A                  
  0.1062       5 (B2) B                  ->    32 (A1) B                  
  0.1046       6 (B2) A                  ->    21 (A1) A                  
  0.1046       6 (B2) B                  ->    21 (A1) B                  
  0.1023       6 (B2) A                  ->    25 (A1) A                  
  0.1023       6 (B2) B                  ->    25 (A1) B                  

              Summary of significant orbitals:

               Number  Type             Irrep      Energy
               35      Occ  Alpha       5 (B2)     -0.4400
               38      Occ  Alpha       6 (B2)     -0.3350
               35      Occ  Beta        5 (B2)     -0.4400
               38      Occ  Beta        6 (B2)     -0.3350
               39      Vir  Alpha      20 (A1)      0.0132
               41      Vir  Alpha      21 (A1)      0.0204
               44      Vir  Alpha      22 (A1)      0.0297
               52      Vir  Alpha      25 (A1)      0.0587
               60      Vir  Alpha      28 (A1)      0.0816
               61      Vir  Alpha      29 (A1)      0.0865
               65      Vir  Alpha      30 (A1)      0.1014
               67      Vir  Alpha      31 (A1)      0.1233
               68      Vir  Alpha      32 (A1)      0.1397
               74      Vir  Alpha      34 (A1)      0.1956
               78      Vir  Alpha      36 (A1)      0.2140
               39      Vir  Beta       20 (A1)      0.0132
               41      Vir  Beta       21 (A1)      0.0204
               44      Vir  Beta       22 (A1)      0.0297
               52      Vir  Beta       25 (A1)      0.0587
               60      Vir  Beta       28 (A1)      0.0816
               61      Vir  Beta       29 (A1)      0.0865
               65      Vir  Beta       30 (A1)      0.1014
               67      Vir  Beta       31 (A1)      0.1233
               68      Vir  Beta       32 (A1)      0.1397
               74      Vir  Beta       34 (A1)      0.1956
               78      Vir  Beta       36 (A1)      0.2140


 EOMEE transition 2/B2
 Total energy = -2803.64978814 a.u.  Excitation energy = 6.3238 eV.
 R0^2 = 0.0000  R1^2 = 0.9359  R2^2 = 0.0641  Res^2 = 4.25e-06
 Conv-d = yes

 Amplitude    Transitions between orbitals
  0.4231       6 (B2) A                  ->    20 (A1) A                  
  0.4231       6 (B2) B                  ->    20 (A1) B                  
 -0.3025       6 (B2) A                  ->    25 (A1) A                  
 -0.3025       6 (B2) B                  ->    25 (A1) B                  
  0.2138       6 (B2) A                  ->    26 (A1) A                  
  0.2138       6 (B2) B                  ->    26 (A1) B                  
  0.1478       6 (B2) A                  ->    34 (A1) A                  
  0.1478       6 (B2) B                  ->    34 (A1) B                  
  0.1427       6 (B2) A                  ->    21 (A1) A                  
  0.1427       6 (B2) B                  ->    21 (A1) B                  
 -0.1360       6 (B2) A                  ->    32 (A1) A                  
 -0.1360       6 (B2) B                  ->    32 (A1) B                  

              Summary of significant orbitals:

               Number  Type             Irrep      Energy
               38      Occ  Alpha       6 (B2)     -0.3350
               38      Occ  Beta        6 (B2)     -0.3350
               39      Vir  Alpha      20 (A1)      0.0132
               41      Vir  Alpha      21 (A1)      0.0204
               52      Vir  Alpha      25 (A1)      0.0587
               54      Vir  Alpha      26 (A1)      0.0654
               68      Vir  Alpha      32 (A1)      0.1397
               74      Vir  Alpha      34 (A1)      0.1956
               39      Vir  Beta       20 (A1)      0.0132
               41      Vir  Beta       21 (A1)      0.0204
               52      Vir  Beta       25 (A1)      0.0587
               54      Vir  Beta       26 (A1)      0.0654
               68      Vir  Beta       32 (A1)      0.1397
               74      Vir  Beta       34 (A1)      0.1956


      EOM-CCSD/MP2 left amplitudes will be solved using Davidson.
        Amplitudes will be solved using MOM  algorithm.
     Hard-coded thresholds: 
     LinDepThresh=1.00e-15  NormThresh=1.00e-06  ReorthogonThresh=1.00e-02

      Roots     MaxVec    MaxIter   Precond   Conv      Shift    
      2         60        60        1         1.00e-05  0.00e+00  
 ------------------------------------------------------------------------------
      Iter ConvRoots NVecs ResNorm Current eigenvalues (eV)
 ------------------------------------------------------------------------------
      0    0      2     5.89e-03   5.9552   6.3238   
      1    0      4     3.95e-01   5.9552   6.3237   
      2    0      6     4.46e-04   5.9552   6.3237   
      3    0      8     4.31e-04   5.9552   6.3237   
      4    0      10    3.82e-05   5.9552   6.3237   
      5    2      12    3.51e-06   5.9552*  6.3237*  

     Davidson procedure converged

 EOMEE-CCSD calculation:   CPU 12184.73 s  wall 1583.85 s


 Start computing the transition properties

 ------------------------------------------------------------------------------
 State A: ccsd: 0/A1
 State B: eomee_ccsd/rhfref/singlets: 1/A1
 Transition dipole moment (a.u.):
   A->B: 0.935619 (X 0.000000, Y 0.000000, Z 0.935619)
   B->A: 0.987266 (X 0.000000, Y 0.000000, Z 0.987266)
 Oscillator strength (a.u.): 0.141963
 Norm of one-particle transition density matrix:
   A->B: 0.908183;   B->A: 0.961768
   ||gamma^AB||*||gamma^BA||: 0.873462

 ------------------------------------------------------------------------------
 State A: ccsd: 0/A1
 State B: eomee_ccsd/rhfref/singlets: 2/A1
 Transition dipole moment (a.u.):
   A->B: 0.375573 (X 0.000000, Y 0.000000, Z 0.375573)
   B->A: 0.384967 (X 0.000000, Y 0.000000, Z 0.384967)
 Oscillator strength (a.u.): 0.024812
 Norm of one-particle transition density matrix:
   A->B: 0.929584;   B->A: 0.958755
   ||gamma^AB||*||gamma^BA||: 0.891243

 ------------------------------------------------------------------------------
 State A: ccsd: 0/A1
 State B: eomee_ccsd/rhfref/singlets: 1/A2
 Transition dipole moment (a.u.):
   A->B: 0.000000 (X 0.000000, Y 0.000000, Z 0.000000)
   B->A: 0.000000 (X 0.000000, Y 0.000000, Z 0.000000)
 Oscillator strength (a.u.): 0.000000
 Norm of one-particle transition density matrix:
   A->B: 0.922196;   B->A: 0.955728
   ||gamma^AB||*||gamma^BA||: 0.881369

 ------------------------------------------------------------------------------
 State A: ccsd: 0/A1
 State B: eomee_ccsd/rhfref/singlets: 2/A2
 Transition dipole moment (a.u.):
   A->B: 0.000000 (X 0.000000, Y 0.000000, Z 0.000000)
   B->A: 0.000000 (X 0.000000, Y 0.000000, Z 0.000000)
 Oscillator strength (a.u.): 0.000000
 Norm of one-particle transition density matrix:
   A->B: 0.928133;   B->A: 0.956664
   ||gamma^AB||*||gamma^BA||: 0.887911

 ------------------------------------------------------------------------------
 State A: ccsd: 0/A1
 State B: eomee_ccsd/rhfref/singlets: 1/B1
 Transition dipole moment (a.u.):
   A->B: 0.066588 (X -0.066588, Y 0.000000, Z 0.000000)
   B->A: 0.063506 (X -0.063506, Y 0.000000, Z 0.000000)
 Oscillator strength (a.u.): 0.000526
 Norm of one-particle transition density matrix:
   A->B: 0.885941;   B->A: 0.936369
   ||gamma^AB||*||gamma^BA||: 0.829567

 ------------------------------------------------------------------------------
 State A: ccsd: 0/A1
 State B: eomee_ccsd/rhfref/singlets: 2/B1
 Transition dipole moment (a.u.):
   A->B: 0.227945 (X -0.227945, Y 0.000000, Z 0.000000)
   B->A: 0.245781 (X -0.245781, Y 0.000000, Z 0.000000)
 Oscillator strength (a.u.): 0.009578
 Norm of one-particle transition density matrix:
   A->B: 0.936786;   B->A: 0.964864
   ||gamma^AB||*||gamma^BA||: 0.903872

 ------------------------------------------------------------------------------
 State A: ccsd: 0/A1
 State B: eomee_ccsd/rhfref/singlets: 1/B2
 Transition dipole moment (a.u.):
   A->B: 0.079390 (X 0.000000, Y 0.079390, Z 0.000000)
   B->A: 0.083732 (X 0.000000, Y 0.083732, Z 0.000000)
 Oscillator strength (a.u.): 0.000970
 Norm of one-particle transition density matrix:
   A->B: 0.920510;   B->A: 0.957857
   ||gamma^AB||*||gamma^BA||: 0.881717

 ------------------------------------------------------------------------------
 State A: ccsd: 0/A1
 State B: eomee_ccsd/rhfref/singlets: 2/B2
 Transition dipole moment (a.u.):
   A->B: 0.319871 (X 0.000000, Y -0.319871, Z 0.000000)
   B->A: 0.329081 (X 0.000000, Y -0.329081, Z 0.000000)
 Oscillator strength (a.u.): 0.016308
 Norm of one-particle transition density matrix:
   A->B: 0.930311;   B->A: 0.959123
   ||gamma^AB||*||gamma^BA||: 0.892283


 All requested transition properties have been computed

 Transition Properties:   CPU 232.76 s  wall 38.76 s

 Total ccman2 time:   CPU 16388.66 s  wall 2164.16 s

 
 --------------------------------------------------------------
             Orbital Energies (a.u.) and Symmetries
 --------------------------------------------------------------
 
 Alpha MOs, Restricted
 -- Occupied --                  
-490.03  -65.16  -58.52  -58.52  -58.52  -11.30  -11.26  -11.26
  1 A1    2 A1    3 A1    1 B2    1 B1    4 A1    2 B1    5 A1                 
-11.254 -11.254 -11.251  -9.840  -7.454  -7.445  -7.445  -3.193
  6 A1    3 B1    7 A1    8 A1    9 A1    4 B1    2 B2   10 A1                 
 -3.189  -3.189  -3.179  -3.179  -1.180  -1.076  -1.036  -0.977
  3 B2    5 B1   11 A1    1 A2   12 A1   13 A1    6 B1   14 A1                 
 -0.849  -0.820  -0.714  -0.648  -0.647  -0.608  -0.578  -0.535
  7 B1   15 A1   16 A1    8 B1   17 A1    9 B1   18 A1    4 B2                 
 -0.518  -0.496  -0.440  -0.417  -0.354  -0.335
 10 B1   19 A1    5 B2   11 B1    2 A2    6 B2                                 
 -- Virtual --                   
  0.013   0.020   0.020   0.026   0.029   0.030   0.037   0.040
 20 A1   12 B1   21 A1    7 B2   13 B1   22 A1   23 A1    8 B2                 
  0.043   0.047   0.048   0.054   0.055   0.059   0.063   0.065
  3 A2   14 B1   24 A1    9 B2    4 A2   25 A1   15 B1   26 A1                 
  0.067   0.067   0.069   0.069   0.076   0.082   0.087   0.091
 16 B1   10 B2   27 A1   11 B2   17 B1   28 A1   29 A1   18 B1                 
  0.100   0.101   0.101   0.119   0.123   0.140   0.156   0.165
 12 B2    5 A2   30 A1   19 B1   31 A1   32 A1   13 B2   20 B1                 
  0.174   0.177   0.179   0.196   0.198   0.203   0.207   0.214
 14 B2   33 A1    6 A2   34 A1   21 B1   35 A1   15 B2   36 A1                 
  0.223   0.225   0.229   0.229   0.231   0.241   0.245   0.247
 22 B1   16 B2   37 A1   23 B1    7 A2   38 A1   17 B2   24 B1                 
  0.252   0.254   0.263   0.278   0.289   0.293   0.314   0.337
 39 A1   25 B1   40 A1   41 A1   26 B1   27 B1   42 A1   28 B1                 
  0.342   0.353   0.377   0.413   0.416   0.433   0.442   0.487
 43 A1   18 B2   44 A1   45 A1   29 B1   30 B1   46 A1   47 A1                 
  0.494   0.511   0.512   0.606   0.615   0.619   0.645   0.647
 31 B1   32 B1   48 A1   49 A1   33 B1   19 B2   34 B1   50 A1                 
  0.716   0.729   0.736   0.737   0.741   0.747   0.766   0.774
 51 A1   35 B1   20 B2   36 B1   52 A1   21 B2    8 A2   53 A1                 
  0.787   0.787   0.805   0.824   0.829   0.866   0.888   0.897
  9 A2   37 B1   22 B2   54 A1   10 A2   23 B2   55 A1   56 A1                 
  0.924   0.925   0.935   0.939   0.960   0.985   1.012   1.031
 38 B1   24 B2   57 A1   39 B1   58 A1   59 A1   40 B1   60 A1                 
  1.059   1.069   1.097   1.098   1.112   1.126   1.177   1.203
 41 B1   61 A1   42 B1   62 A1   63 A1   43 B1   44 B1   25 B2                 
  1.203   1.231   1.286   1.293   1.308   1.345   1.374   1.472
 64 A1   11 A2   65 A1   45 B1   12 A2   26 B2   13 A2   66 A1                 
  1.525   1.614   1.725   1.776   1.785   1.817   1.823   1.831
 27 B2   67 A1   46 B1   68 A1   47 B1   69 A1   28 B2   14 A2                 
  1.881   1.905   1.907   1.947   1.990   2.006   2.042   2.102
 29 B2   70 A1   48 B1   71 A1   49 B1   30 B2   15 A2   50 B1                 
  2.147   2.217   2.218   2.219   2.235   2.248   2.272   2.320
 72 A1   51 B1   31 B2   16 A2   52 B1   73 A1   32 B2   74 A1                 
  2.345   2.352   2.366   2.375   2.443   2.594   2.614   2.645
 75 A1   53 B1   17 A2   33 B2   54 B1   34 B2   76 A1   18 A2                 
  2.676   2.742   2.796   2.796   2.849   2.929   2.972   2.991
 55 B1   77 A1   78 A1   56 B1   57 B1   79 A1   80 A1   81 A1                 
  3.009   3.022   3.031   3.039   3.069   3.161   3.186   3.193
 58 B1   82 A1   83 A1   59 B1   35 B2   84 A1   36 B2   60 B1                 
  3.193   3.280   3.286   3.319   3.472   3.530   3.563   3.756
 19 A2   37 B2   20 A2   61 B1   38 B2   85 A1   62 B1   63 B1                 
  3.780   3.899   3.921   4.018   4.139   4.383   4.438   4.501
 86 A1   64 B1   87 A1   88 A1   89 A1   65 B1   90 A1   91 A1                 
  4.515   4.558   4.609   4.637   4.789   4.960   5.114   5.261
 66 B1   21 A2   92 A1   39 B2   67 B1   93 A1   94 A1   68 B1                 
  5.439   5.446   5.759   5.778   6.183   7.393   8.256   8.348
 95 A1   69 B1   96 A1   70 B1   97 A1   98 A1   40 B2   71 B1                 
  8.448  20.615  20.685  20.706  20.824  20.851  21.124  49.625
 99 A1  100 A1  101 A1   72 B1  102 A1   73 B1  103 A1  104 A1                 
 80.185  80.258  80.280  80.379  80.404  80.610 293.938 294.033
105 A1  106 A1   74 B1  107 A1   75 B1  108 A1   41 B2   76 B1                 
294.152 322.027 322.095 322.116 322.200 322.221 322.3881028.598
109 A1  110 A1  111 A1   77 B1  112 A1   78 B1  113 A1  114 A1                 
*******1431.6581431.6781431.7481431.7671431.9068749.8358749.890
115 A1  116 A1   79 B1  117 A1   80 B1  118 A1  119 A1  120 A1                 
*******8749.9638749.9808750.091
 81 B1  121 A1   82 B1  122 A1                                                 
 
 Beta MOs, Restricted
 -- Occupied --                  
-490.03  -65.16  -58.52  -58.52  -58.52  -11.30  -11.26  -11.26
  1 A1    2 A1    3 A1    1 B2    1 B1    4 A1    2 B1    5 A1                 
-11.254 -11.254 -11.251  -9.840  -7.454  -7.445  -7.445  -3.193
  6 A1    3 B1    7 A1    8 A1    9 A1    4 B1    2 B2   10 A1                 
 -3.189  -3.189  -3.179  -3.179  -1.180  -1.076  -1.036  -0.977
  3 B2    5 B1   11 A1    1 A2   12 A1   13 A1    6 B1   14 A1                 
 -0.849  -0.820  -0.714  -0.648  -0.647  -0.608  -0.578  -0.535
  7 B1   15 A1   16 A1    8 B1   17 A1    9 B1   18 A1    4 B2                 
 -0.518  -0.496  -0.440  -0.417  -0.354  -0.335
 10 B1   19 A1    5 B2   11 B1    2 A2    6 B2                                 
 -- Virtual --                   
  0.013   0.020   0.020   0.026   0.029   0.030   0.037   0.040
 20 A1   12 B1   21 A1    7 B2   13 B1   22 A1   23 A1    8 B2                 
  0.043   0.047   0.048   0.054   0.055   0.059   0.063   0.065
  3 A2   14 B1   24 A1    9 B2    4 A2   25 A1   15 B1   26 A1                 
  0.067   0.067   0.069   0.069   0.076   0.082   0.087   0.091
 16 B1   10 B2   27 A1   11 B2   17 B1   28 A1   29 A1   18 B1                 
  0.100   0.101   0.101   0.119   0.123   0.140   0.156   0.165
 12 B2    5 A2   30 A1   19 B1   31 A1   32 A1   13 B2   20 B1                 
  0.174   0.177   0.179   0.196   0.198   0.203   0.207   0.214
 14 B2   33 A1    6 A2   34 A1   21 B1   35 A1   15 B2   36 A1                 
  0.223   0.225   0.229   0.229   0.231   0.241   0.245   0.247
 22 B1   16 B2   37 A1   23 B1    7 A2   38 A1   17 B2   24 B1                 
  0.252   0.254   0.263   0.278   0.289   0.293   0.314   0.337
 39 A1   25 B1   40 A1   41 A1   26 B1   27 B1   42 A1   28 B1                 
  0.342   0.353   0.377   0.413   0.416   0.433   0.442   0.487
 43 A1   18 B2   44 A1   45 A1   29 B1   30 B1   46 A1   47 A1                 
  0.494   0.511   0.512   0.606   0.615   0.619   0.645   0.647
 31 B1   32 B1   48 A1   49 A1   33 B1   19 B2   34 B1   50 A1                 
  0.716   0.729   0.736   0.737   0.741   0.747   0.766   0.774
 51 A1   35 B1   20 B2   36 B1   52 A1   21 B2    8 A2   53 A1                 
  0.787   0.787   0.805   0.824   0.829   0.866   0.888   0.897
  9 A2   37 B1   22 B2   54 A1   10 A2   23 B2   55 A1   56 A1                 
  0.924   0.925   0.935   0.939   0.960   0.985   1.012   1.031
 38 B1   24 B2   57 A1   39 B1   58 A1   59 A1   40 B1   60 A1                 
  1.059   1.069   1.097   1.098   1.112   1.126   1.177   1.203
 41 B1   61 A1   42 B1   62 A1   63 A1   43 B1   44 B1   25 B2                 
  1.203   1.231   1.286   1.293   1.308   1.345   1.374   1.472
 64 A1   11 A2   65 A1   45 B1   12 A2   26 B2   13 A2   66 A1                 
  1.525   1.614   1.725   1.776   1.785   1.817   1.823   1.831
 27 B2   67 A1   46 B1   68 A1   47 B1   69 A1   28 B2   14 A2                 
  1.881   1.905   1.907   1.947   1.990   2.006   2.042   2.102
 29 B2   70 A1   48 B1   71 A1   49 B1   30 B2   15 A2   50 B1                 
  2.147   2.217   2.218   2.219   2.235   2.248   2.272   2.320
 72 A1   51 B1   31 B2   16 A2   52 B1   73 A1   32 B2   74 A1                 
  2.345   2.352   2.366   2.375   2.443   2.594   2.614   2.645
 75 A1   53 B1   17 A2   33 B2   54 B1   34 B2   76 A1   18 A2                 
  2.676   2.742   2.796   2.796   2.849   2.929   2.972   2.991
 55 B1   77 A1   78 A1   56 B1   57 B1   79 A1   80 A1   81 A1                 
  3.009   3.022   3.031   3.039   3.069   3.161   3.186   3.193
 58 B1   82 A1   83 A1   59 B1   35 B2   84 A1   36 B2   60 B1                 
  3.193   3.280   3.286   3.319   3.472   3.530   3.563   3.756
 19 A2   37 B2   20 A2   61 B1   38 B2   85 A1   62 B1   63 B1                 
  3.780   3.899   3.921   4.018   4.139   4.383   4.438   4.501
 86 A1   64 B1   87 A1   88 A1   89 A1   65 B1   90 A1   91 A1                 
  4.515   4.558   4.609   4.637   4.789   4.960   5.114   5.261
 66 B1   21 A2   92 A1   39 B2   67 B1   93 A1   94 A1   68 B1                 
  5.439   5.446   5.759   5.778   6.183   7.393   8.256   8.348
 95 A1   69 B1   96 A1   70 B1   97 A1   98 A1   40 B2   71 B1                 
  8.448  20.615  20.685  20.706  20.824  20.851  21.124  49.625
 99 A1  100 A1  101 A1   72 B1  102 A1   73 B1  103 A1  104 A1                 
 80.185  80.258  80.280  80.379  80.404  80.610 293.938 294.033
105 A1  106 A1   74 B1  107 A1   75 B1  108 A1   41 B2   76 B1                 
294.152 322.027 322.095 322.116 322.200 322.221 322.3881028.598
109 A1  110 A1  111 A1   77 B1  112 A1   78 B1  113 A1  114 A1                 
*******1431.6581431.6781431.7481431.7671431.9068749.8358749.890
115 A1  116 A1   79 B1  117 A1   80 B1  118 A1  119 A1  120 A1                 
*******8749.9638749.9808750.091
 81 B1  121 A1   82 B1  122 A1                                                 
 --------------------------------------------------------------
 
          Ground-State Mulliken Net Atomic Charges

     Atom                 Charge (a.u.)
  ----------------------------------------
      1 H                     0.259552
      2 C                    -0.225772
      3 C                    -0.163465
      4 H                     0.227419
      5 C                    -0.415497
      6 H                     0.187829
      7 C                    -0.163465
      8 H                     0.227419
      9 C                    -0.225772
     10 H                     0.259552
     11 C                     0.385991
     12 Br                   -0.353791
  ----------------------------------------
  Sum of atomic charges =     0.000000

 -----------------------------------------------------------------
                    Cartesian Multipole Moments
 -----------------------------------------------------------------
    Charge (ESU x 10^10)
                -0.0000
    Dipole Moment (Debye)
         X      -0.0000      Y       0.0000      Z      -2.0243
       Tot       2.0243
    Quadrupole Moments (Debye-Ang)
        XX     -48.3716     XY      -0.0000     YY     -58.7598
        XZ      -0.0000     YZ      -0.0000     ZZ     -49.5428
    Octopole Moments (Debye-Ang^2)
       XXX       0.0000    XXY       0.0000    XYY       0.0000
       YYY       0.0000    XXZ      11.2082    XYZ      -0.0000
       YYZ      26.3115    XZZ       0.0000    YZZ       0.0000
       ZZZ      41.1621
    Hexadecapole Moments (Debye-Ang^3)
      XXXX    -283.2336   XXXY      -0.0000   XXYY     -72.3334
      XYYY      -0.0000   YYYY     -72.6692   XXXZ      -0.0000
      XXYZ      -0.0000   XYYZ       0.0000   YYYZ      -0.0000
      XXZZ    -223.8748   XYZZ      -0.0000   YYZZ    -222.8924
      XZZZ       0.0000   YZZZ      -0.0000   ZZZZ   -1014.6946
 -----------------------------------------------------------------
Archival summary:
1\1\n-62-30-15\SP\ProcedureUnspecified\BasisUnspecified\r165\malop\TueNov2013:52:272018TueNov2013:52:272018\0\\#,ProcedureUnspecified,BasisUnspecified,\\0,1\Br\C,1,1.884\C,2,1.3922,1,119.37\H,3,1.0802,2,120.072,1,-0,0\C,2,1.3922,1,119.37,3,-180,0\H,5,1.0802,2,120.072,1,-0,0\C,3,1.39311,2,119.031,1,-180,0\H,7,1.08133,3,119.353,2,-180,0\C,5,1.39311,2,119.031,1,180,0\H,9,1.08133,5,119.353,2,180,0\C,7,1.39319,3,120.463,2,-0,0\H,11,1.08081,7,120.124,3,-180,0\\HF=-2802.54028\\@

 Total job time:  2232.97s(wall), 16838.20s(cpu) 
 Tue Nov 20 13:52:27 2018

        *************************************************************
        *                                                           *
        *  Thank you very much for using Q-Chem.  Have a nice day.  *
        *                                                           *
        *************************************************************


