n-62-29-13 10.66.29
Q-Chem Developer Version! Running on 10.66.29.*
                  Welcome to Q-Chem
     A Quantum Leap Into The Future Of Chemistry


 Q-Chem 5.1, Q-Chem, Inc., Pleasanton, CA (2018)

 Yihan Shao,  Zhengting Gan,  E. Epifanovsky,  A. T. B. Gilbert,  M. Wormit,  
 J. Kussmann,  A. W. Lange,  A. Behn,  Jia Deng,  Xintian Feng,  D. Ghosh,  
 M. Goldey,  P. R. Horn,  L. D. Jacobson,  I. Kaliman,  T. Kus,  A. Landau,  
 Jie Liu,  E. I. Proynov,  R. M. Richard,  R. P. Steele,  E. J. Sundstrom,  
 H. L. Woodcock III,  P. M. Zimmerman,  D. Zuev,  B. Albrecht,  E. Alguire,  
 S. A. Baeppler,  D. Barton,  Z. Benda,  Y. A. Bernard,  E. J. Berquist,  
 K. B. Bravaya,  H. Burton,  D. Casanova,  Chun-Min Chang,  Yunqing Chen,  
 A. Chien,  K. D. Closser,  M. P. Coons,  S. Coriani,  S. Dasgupta,  
 A. L. Dempwolff,  M. Diedenhofen,  Hainam Do,  R. G. Edgar,  Po-Tung Fang,  
 S. Faraji,  S. Fatehi,  Qingguo Feng,  K. D. Fenk,  J. Fosso-Tande,  
 Qinghui Ge,  A. Ghysels,  G. Gidofalvi,  J. Gomes,  J. Gonthier,  A. Gunina,  
 M. W. D. Hanson-Heine,  P. H. P. Harbach,  A. W. Hauser,  J. E. Herr,  
 E. G. Hohenstein,  Z. C. Holden,  Kerwin Hui,  T.-C. Jagau,  Hyunjun Ji,  
 B. Kaduk,  K. Khistyaev,  Jaehoon Kim,  P. Klunzinger,  K. Koh,  
 D. Kosenkov,  L. Koulias,  T. Kowalczyk,  C. M. Krauter,  A. Kunitsa,  
 Ka Un Lao,  A. Laurent,  K. V. Lawler,  Joonho Lee,  D. Lefrancois,  
 S. Lehtola,  D. S. Levine,  Yi-Pei Li,  You-Sheng Lin,  Fenglai Liu,  
 E. Livshits,  A. Luenser,  P. Manohar,  E. Mansoor,  S. F. Manzer,  
 Shan-Ping Mao,  Yuezhi Mao,  N. Mardirossian,  A. V. Marenich,  
 T. Markovich,  L. A. Martinez-Martinez,  S. A. Maurer,  N. J. Mayhall,  
 S. C. McKenzie,  J.-M. Mewes,  A. F. Morrison,  J. W. Mullinax,  K. Nanda,  
 T. S. Nguyen-Beck,  R. Olivares-Amaya,  J. A. Parkhill,  T. M. Perrine,  
 F. Plasser,  P. Pokhilko,  S. Prager,  A. Prociuk,  E. Ramos,  D. R. Rehn,  
 F. Rob,  M. Schneider,  N. Sergueev,  S. M. Sharada,  S. Sharma,  
 D. W. Small,  T. Stauch,  T. Stein,  Yu-Chuan Su,  A. J. W. Thom,  
 A. Tkatchenko,  T. Tsuchimochi,  N. M. Tubman,  L. Vogt,  M. L. Vidal,  
 O. Vydrov,  M. A. Watson,  J. Wenzel,  M. de Wergifosse,  T. A. Wesolowski,  
 A. White,  J. Witte,  A. Yamada,  Jun Yang,  K. Yao,  S. Yeganeh,  
 S. R. Yost,  Zhi-Qiang You,  A. Zech,  Igor Ying Zhang,  Xing Zhang,  
 Yan Zhao,  Ying Zhu,  B. R. Brooks,  G. K. L. Chan,  C. J. Cramer,  
 M. S. Gordon,  W. J. Hehre,  A. Klamt,  M. W. Schmidt,  C. D. Sherrill,  
 D. G. Truhlar,  A. Aspuru-Guzik,  R. Baer,  A. T. Bell,  N. A. Besley,  
 Jeng-Da Chai,  R. A. DiStasio Jr.,  A. Dreuw,  B. D. Dunietz,  
 T. R. Furlani,  Chao-Ping Hsu,  Yousung Jung,  Jing Kong,  D. S. Lambrecht,  
 WanZhen Liang,  C. Ochsenfeld,  V. A. Rassolov,  L. V. Slipchenko,  
 J. E. Subotnik,  T. Van Voorhis,  J. M. Herbert,  A. I. Krylov,  
 P. M. W. Gill,  M. Head-Gordon

 Contributors to earlier versions of Q-Chem not listed above: 
 R. D. Adamson,  B. Austin,  J. Baker,  G. J. O. Beran,  K. Brandhorst,  
 S. T. Brown,  E. F. C. Byrd,  A. K. Chakraborty,  C.-L. Cheng,  
 Siu Hung Chien,  D. M. Chipman,  D. L. Crittenden,  H. Dachsel,  
 R. J. Doerksen,  A. D. Dutoi,  L. Fusti-Molnar,  W. A. Goddard III,  
 A. Golubeva-Zadorozhnaya,  S. R. Gwaltney,  G. Hawkins,  A. Heyden,  
 S. Hirata,  G. Kedziora,  F. J. Keil,  C. Kelley,  Jihan Kim,  R. A. King,  
 R. Z. Khaliullin,  P. P. Korambath,  W. Kurlancheek,  A. M. Lee,  M. S. Lee,  
 S. V. Levchenko,  Ching Yeh Lin,  D. Liotard,  R. C. Lochan,  I. Lotan,  
 P. E. Maslen,  N. Nair,  D. P. O'Neill,  D. Neuhauser,  E. Neuscamman,  
 C. M. Oana,  R. Olson,  B. Peters,  R. Peverati,  P. A. Pieniazek,  
 Y. M. Rhee,  J. Ritchie,  M. A. Rohrdanz,  E. Rosta,  N. J. Russ,  
 H. F. Schaefer III,  N. E. Schultz,  N. Shenvi,  A. C. Simmonett,  A. Sodt,  
 D. Stuck,  K. S. Thanthiriwatte,  V. Vanovschi,  Tao Wang,  A. Warshel,  
 C. F. Williams,  Q. Wu,  X. Xu,  W. Zhang

 Please cite Q-Chem as follows:
 Y. Shao et al., Mol. Phys. 113, 184-215 (2015)
 DOI: 10.1080/00268976.2014.952696

 Q-Chem 5.1.0 for Intel X86 EM64T Linux

 Parts of Q-Chem use Armadillo 8.300.2 (Tropical Shenanigans).
 http://arma.sourceforge.net/

 Q-Chem begins on Thu Nov 22 20:40:55 2018  

Host: 
0

     Scratch files written to /work1/malop/qc_7471762.hnode2//

Checking the input file for inconsistencies... 	...done.

--------------------------------------------------------------
User input:
--------------------------------------------------------------
$comment
Optimized Cl-Bz, XAS
basis = 6-311(2+,+)G** uncontracted on C 
$end

$molecule
0 1
H      -2.1434404908     0.0000000000    -0.2235906397
C      -1.2132672529    -0.0000000000    -0.7727863601
C      -1.2050294832    -0.0000000000    -2.1658702173
H      -2.1443854307    -0.0000000000    -2.7014917948
C       0.0000000000    -0.0000000000    -2.8650776091
H       0.0000000000    -0.0000000000    -3.9458877158
C       1.2050294832    -0.0000000000    -2.1658702173
H       2.1443854307    -0.0000000000    -2.7014917948
C       1.2132672529    -0.0000000000    -0.7727863601
H       2.1434404908    -0.0000000000    -0.2235906397
C      -0.0000000000    -0.0000000000    -0.0899907575
Br     -0.0000000000     0.0000000000     1.7940097632
$end

$rem
   JOB_TYPE  =  SP
   BASIS  =  general
   METHOD  =  EOM-CCSD
   CVS_EE_STATES = [20,0,20,20]
   eom_preconv_singles = true
   n_frozen_core = 7
   cc_trans_prop = true
   use_libqints = 1   !use new int library (will be def in trunk)
   cc_memory = 100000
   EOM_DAVIDSON_MAX_ITER 200
   EOM_DAVIDSON_MAXVECTORS = 1000
   eom_davidson_convergence = 4
   eom_shift = 10000
$end

$basis
H    0
S    3    1.000000
   3.38650000E+01    2.54938000E-02
   5.09479000E+00    1.90373000E-01
   1.15879000E+00    8.52161000E-01
S    1    1.000000
   3.25840000E-01    1.00000000E+00
S    1    1.000000
   1.02741000E-01    1.00000000E+00
S    1    1.000000
   3.60000000E-02    1.00000000E+00
P    1    1.000000
   7.50000000E-01    1.00000000E+00
****
C    0
S    1    1.000000
   4.56324000E+03    1.96665000E-03
S    1    1.000000
   6.82024000E+02    1.52306000E-02
S    1    1.000000
   1.54973000E+02    7.61269000E-02
S    1    1.000000
   4.44553000E+01    2.60801000E-01
S    1    1.000000
   1.30290000E+01    6.16462000E-01
S    1    1.000000
   1.82773000E+00    2.21006000E-01
SP   3    1.000000
   2.09642000E+01    1.14660000E-01   4.02487000E-02
   4.80331000E+00    9.19999000E-01   2.37594000E-01
   1.45933000E+00   -3.03068000E-03   8.15854000E-01
SP   1    1.000000
   4.83456000E-01    1.00000000E+00   1.00000000E+00
SP   1    1.000000
   1.45585000E-01    1.00000000E+00   1.00000000E+00
SP   1    1.000000
   4.38000000E-02    1.00000000E+00   1.00000000E+00
SP   1    1.000000
   1.31927711E-02    1.00000000E+00   1.00000000E+00
D    1    1.000000
   6.26000000E-01    1.00000000E+00
****
Br   0
S    6    1.000000
   4.39700000E+05    8.13000000E-04
   6.60300000E+04    6.28500000E-03
   1.51400000E+04    3.19200000E-02
   4.31700000E+03    1.28800000E-01
   1.41400000E+03    3.94600000E-01
   5.23900000E+02    5.41300000E-01
S    3    1.000000
   5.23900000E+02    1.83100000E-01
   2.07700000E+02    6.17600000E-01
   8.65400000E+01    2.53800000E-01
S    1    1.000000
   3.05200000E+01    1.00000000E+00
S    1    1.000000
   1.29800000E+01    1.00000000E+00
S    1    1.000000
   4.41200000E+00    1.00000000E+00
S    1    1.000000
   1.86200000E+00    1.00000000E+00
S    1    1.000000
   3.93200000E-01    1.00000000E+00
S    1    1.000000
   1.40000000E-01    1.00000000E+00
P    3    1.000000
   2.95700000E+03    2.22600000E-02
   7.00300000E+02    1.80200000E-01
   2.24600000E+02    8.62400000E-01
P    3    1.000000
   8.25900000E+01    3.44000000E-01
   3.31900000E+01    5.07100000E-01
   1.42000000E+01    2.59000000E-01
P    3    1.000000
   1.42000000E+01    7.96500000E-02
   7.43800000E+00    3.73400000E-01
   3.52600000E+00    6.04900000E-01
P    1    1.000000
   1.59500000E+00    1.00000000E+00
P    1    1.000000
   8.46200000E-01    1.00000000E+00
P    1    1.000000
   3.18600000E-01    1.00000000E+00
P    1    1.000000
   1.09600000E-01    1.00000000E+00
D    4    1.000000
   1.34800000E+02    1.83100000E-02
   3.63900000E+01    1.35000000E-01
   1.21600000E+01    4.26100000E-01
   4.34100000E+00    6.04300000E-01
D    1    1.000000
   1.53500000E+00    1.00000000E+00
SP   1    1.000000
   3.90000000E-02    1.00000000E+00   1.00000000E+00
SP   1    1.000000
   1.17469880E-02    1.00000000E+00   1.00000000E+00
D    1    1.000000
   4.15000000E-01    1.00000000E+00
****
Gh   0
S   1   1.00
        0.0112533427        1.0000000000
S   1   1.00
        0.0058583805        1.0000000000
S   1   1.00
        0.0033459739        1.0000000000
S   1   1.00
        0.0020484225        1.0000000000
S   1   1.00
        0.0013236424        1.0000000000
P   1   1.00
        0.0192542060        1.0000000000
P   1   1.00
        0.0099882106        1.0000000000
P   1   1.00
        0.0056893607        1.0000000000
P   1   1.00
        0.0034756797        1.0000000000
P   1   1.00
        0.0022420590        1.0000000000
D   1   1.00
        0.0274456919        1.0000000000
D   1   1.00
        0.0142043987        1.0000000000
D   1   1.00
        0.0080765930        1.0000000000
D   1   1.00
        0.0049271863        1.0000000000
D   1   1.00
        0.0031748110        1.0000000000
****
$end

--------------------------------------------------------------
 ----------------------------------------------------------------
             Standard Nuclear Orientation (Angstroms)
    I     Atom           X                Y                Z
 ----------------------------------------------------------------
    1      H      -2.1434404908     0.0000000000    -0.2235906397
    2      C      -1.2132672529    -0.0000000000    -0.7727863601
    3      C      -1.2050294832    -0.0000000000    -2.1658702173
    4      H      -2.1443854307    -0.0000000000    -2.7014917948
    5      C       0.0000000000    -0.0000000000    -2.8650776091
    6      H       0.0000000000    -0.0000000000    -3.9458877158
    7      C       1.2050294832    -0.0000000000    -2.1658702173
    8      H       2.1443854307    -0.0000000000    -2.7014917948
    9      C       1.2132672529    -0.0000000000    -0.7727863601
   10      H       2.1434404908    -0.0000000000    -0.2235906397
   11      C      -0.0000000000    -0.0000000000    -0.0899907575
   12      Br     -0.0000000000     0.0000000000     1.7940097632
 ----------------------------------------------------------------
 Molecular Point Group                 C2v   NOp =  4
 Largest Abelian Subgroup              C2v   NOp =  4
 Nuclear Repulsion Energy =   432.5066877038 hartrees
 There are       38 alpha and       38 beta electrons

 Q-Chem warning in module forms1/BasisType.C, line 1685:

 Setting pure/cartesian flag to 2111 for general basis


 Requested basis set is non-standard
 There are 117 shells and 273 basis functions
MEM_TOTAL is adjusted to CC_MEMORY + MEM_STATIC!
 Total memory of 100192MB is distributed as follows: 
   QALLOC including MEM_STATIC uses 192MB
   MEM_STATIC is set to 192MB
   CCMAN JOB total memory use is  100000MB
 Warning: actual memory use might exceed 100192MB

 Total QAlloc Memory Limit    192 MB
 Mega-Array Size       188 MB
 MEM_STATIC part       192 MB

                       Distance Matrix (Angstroms)
             H (  1)   C (  2)   C (  3)   H (  4)   C (  5)   H (  6)
   C (  2)  1.080203
   C (  3)  2.157096  1.393108
   H (  4)  2.477901  2.141702  1.081333
   C (  5)  3.401733  2.418615  1.393193  2.150616
   H (  6)  4.295327  3.397144  2.149548  2.479296  1.080810
   C (  7)  3.871008  2.790850  2.410059  3.391972  1.393193  2.149548
   H (  8)  4.952317  3.872175  3.391972  4.288771  2.150616  2.479296
   C (  9)  3.401338  2.426535  2.790850  3.872175  2.418615  3.397144
   H ( 10)  4.286881  3.401338  3.871008  4.952317  3.401733  4.295327
   C ( 11)  2.147600  1.392202  2.400286  3.379101  2.775087  3.855897
   Br( 12)  2.943645  2.839095  4.139172  4.980755  4.659087  5.739897
             C (  7)   H (  8)   C (  9)   H ( 10)   C ( 11)
   H (  8)  1.081333
   C (  9)  1.393108  2.141702
   H ( 10)  2.157096  2.477901  1.080203
   C ( 11)  2.400286  3.379101  1.392202  2.147600
   Br( 12)  4.139172  4.980755  2.839095  2.943645  1.884001
 
 A cutoff of  1.0D-14 yielded   5718 shell pairs
 There are     34880 function pairs (     37255 Cartesian)
 
 -------------------------------------------------------
 OpenMP Integral Computing Module                       
 Release: version 1.0, May 2013, Q-Chem Inc. Pittsburgh 
 -------------------------------------------------------
 Integral Job Info:
 Integral job number is                      11
 Integral operator is                         1
 short-range coefficients                     0
 long-range coefficients              100000000
 Omega coefficients                           0
 if combine SR and LR in K                    0
 Integral screening is                        0
 Integral computing path is                   2
 max size of driver memory is            800000
 size of driver memory is                593474
 size of scratch memory is             29623520
 max col of scratch BK array               1296
 max len of scratch array in speh3          155
 max len of scratch index in speh4           18
 max int batch size is                      520
 min int batch size is                       52
 fixed nKL is                                45
 max L of basis functions is                  2
 order of int derivative is                   0
 number of shells is                        117
 number of basis is                         282
 number of cartesian basis is               282
 number of contracted shell pairs          5718
 number of primitive shell pairs           8629
 maxK2 (contraction) of shell pair           36
 max number of K2 of shell pair               1
 max number of CS2 of shell pair           1561
 max number of PS2 of shell pair           1561
 mem total for path MDJ                  548620
 -------------------------------------------------------
 Smallest overlap matrix eigenvalue = 9.84E-09
 Linear dependence detected in AO basis
 Number of orthogonalized atomic orbitals = 266
 Maximum deviation from orthogonality = 6.659E-11

 Scale SEOQF with 1.000000e-01/1.000000e-01/1.000000e-01

 Standard Electronic Orientation quadrupole field applied
 Nucleus-field energy     =    -0.0000000255 hartrees
 Guess MOs from core Hamiltonian diagonalization

 -----------------------------------------------------------------------
  General SCF calculation program by
  Eric Jon Sundstrom, Paul Horn, Yuezhi Mao, Dmitri Zuev, Alec White,
  David Stuck, Shaama M.S., Shane Yost, Joonho Lee, David Small,
  Daniel Levine, Susi Lehtola, Hugh Burton, Evgeny Epifanovsky
 -----------------------------------------------------------------------
 Hartree-Fock
 A restricted SCF calculation will be
 performed using DIIS
 SCF converges when DIIS error is below 1.0e-08
 ---------------------------------------
  Cycle       Energy         DIIS error
 ---------------------------------------
    1   -2383.9869314792      5.54e-01  
    2   -2189.8943844967      1.75e-01  
    3   -2232.7645986604      1.68e-01  
    4   -2744.6587078936      7.21e-02  
    5   -2754.5915806914      4.90e-02  
    6   -2780.8085580071      4.43e-02  
    7   -2798.4380702138      1.73e-02  
    8   -2802.0517031597      7.65e-03  
    9   -2802.5009432869      2.18e-03  
   10   -2802.5339509471      6.89e-04  
   11   -2802.5387879835      2.68e-04  
   12   -2802.5400377014      8.78e-05  
   13   -2802.5401761100      3.99e-05  
   14   -2802.5402470095      2.35e-05  
   15   -2802.5402732469      7.56e-06  
   16   -2802.5402759193      2.98e-06  
   17   -2802.5402761938      6.55e-07  
   18   -2802.5402762018      1.60e-07  
   19   -2802.5402762024      4.27e-08  
   20   -2802.5402762024      9.43e-09  Convergence criterion met
 ---------------------------------------
 SCF time:   CPU 424.52s  wall 42.00s 
 SCF   energy in the final basis set =    -2802.5402762024


 ------------------------------------------------------------------------------

   CCMAN2: suite of methods based on coupled cluster
           and equation of motion theories.

   Components:
   * libvmm-1.3-trunk
     by Evgeny Epifanovsky, Ilya Kaliman.
   * libtensor-2.5-trunk
     by Evgeny Epifanovsky, Michael Wormit, Dmitry Zuev, Sam Manzer, 
        Ilya Kaliman.
   * libcc-2.5-trunk
     by Evgeny Epifanovsky, Arik Landau, Tomasz Kus, Kirill Khistyaev, 
        Dmitry Zuev, Prashant Manohar, Xintian Feng, Anna Krylov, 
        Matthew Goldey, Alec White, Thomas Jagau, Kaushik Nanda, 
        Anastasia Gunina, Alexander Kunitsa, Joonho Lee.

   CCMAN original authors:
   Anna I. Krylov, C. David Sherrill, Steven R. Gwaltney,
   Edward F. C. Byrd (2000)
   Sergey V. Levchenko, Lyudmila V. Slipchenko, Tao Wang,
   Ana-Maria C. Cristian (2003)
   Piotr A. Pieniazek, C. Melania Oana, Evgeny Epifanovsky (2007)
   Prashant Manohar (2009)

 ------------------------------------------------------------------------------


 Calculation will run on 10 cores with 100000MB of RAM.

 
 Alpha MOs, Restricted
 -- Occupied --                  
-490.03  -65.16  -58.52  -58.52  -58.52  -11.30  -11.26  -11.26
  1 A1    2 A1    3 A1    1 B2    1 B1    4 A1    2 B1    5 A1                 
-11.254 -11.254 -11.251  -9.840  -7.454  -7.445  -7.445  -3.193
  6 A1    3 B1    7 A1    8 A1    9 A1    4 B1    2 B2   10 A1                 
 -3.189  -3.189  -3.179  -3.179  -1.180  -1.076  -1.036  -0.977
  3 B2    5 B1   11 A1    1 A2   12 A1   13 A1    6 B1   14 A1                 
 -0.849  -0.820  -0.714  -0.648  -0.647  -0.608  -0.578  -0.535
  7 B1   15 A1   16 A1    8 B1   17 A1    9 B1   18 A1    4 B2                 
 -0.518  -0.496  -0.440  -0.417  -0.354  -0.335
 10 B1   19 A1    5 B2   11 B1    2 A2    6 B2                                 
 -- Virtual --                   
  0.013   0.020   0.020   0.026   0.029   0.030   0.037   0.040
 20 A1   12 B1   21 A1    7 B2   13 B1   22 A1   23 A1    8 B2                 
  0.043   0.047   0.048   0.054   0.055   0.059   0.063   0.065
  3 A2   14 B1   24 A1    9 B2    4 A2   25 A1   15 B1   26 A1                 
  0.067   0.067   0.069   0.069   0.076   0.082   0.087   0.091
 16 B1   10 B2   27 A1   11 B2   17 B1   28 A1   29 A1   18 B1                 
  0.100   0.101   0.101   0.119   0.123   0.140   0.156   0.165
 12 B2    5 A2   30 A1   19 B1   31 A1   32 A1   13 B2   20 B1                 
  0.174   0.177   0.179   0.196   0.198   0.203   0.207   0.214
 14 B2   33 A1    6 A2   34 A1   21 B1   35 A1   15 B2   36 A1                 
  0.223   0.225   0.229   0.229   0.231   0.241   0.245   0.247
 22 B1   16 B2   37 A1   23 B1    7 A2   38 A1   17 B2   24 B1                 
  0.252   0.254   0.263   0.278   0.289   0.293   0.314   0.337
 39 A1   25 B1   40 A1   41 A1   26 B1   27 B1   42 A1   28 B1                 
  0.342   0.353   0.377   0.413   0.416   0.433   0.442   0.487
 43 A1   18 B2   44 A1   45 A1   29 B1   30 B1   46 A1   47 A1                 
  0.494   0.511   0.512   0.606   0.615   0.619   0.645   0.647
 31 B1   32 B1   48 A1   49 A1   33 B1   19 B2   34 B1   50 A1                 
  0.716   0.729   0.736   0.737   0.741   0.747   0.766   0.774
 51 A1   35 B1   20 B2   36 B1   52 A1   21 B2    8 A2   53 A1                 
  0.787   0.787   0.805   0.824   0.829   0.866   0.888   0.897
  9 A2   37 B1   22 B2   54 A1   10 A2   23 B2   55 A1   56 A1                 
  0.924   0.925   0.935   0.939   0.960   0.985   1.012   1.031
 38 B1   24 B2   57 A1   39 B1   58 A1   59 A1   40 B1   60 A1                 
  1.059   1.069   1.097   1.098   1.112   1.126   1.177   1.203
 41 B1   61 A1   42 B1   62 A1   63 A1   43 B1   44 B1   25 B2                 
  1.203   1.231   1.286   1.293   1.308   1.345   1.374   1.472
 64 A1   11 A2   65 A1   45 B1   12 A2   26 B2   13 A2   66 A1                 
  1.525   1.614   1.725   1.776   1.785   1.817   1.823   1.831
 27 B2   67 A1   46 B1   68 A1   47 B1   69 A1   28 B2   14 A2                 
  1.881   1.905   1.907   1.947   1.990   2.006   2.042   2.102
 29 B2   70 A1   48 B1   71 A1   49 B1   30 B2   15 A2   50 B1                 
  2.147   2.217   2.218   2.219   2.235   2.248   2.272   2.320
 72 A1   51 B1   31 B2   16 A2   52 B1   73 A1   32 B2   74 A1                 
  2.345   2.352   2.366   2.375   2.443   2.594   2.614   2.645
 75 A1   53 B1   17 A2   33 B2   54 B1   34 B2   76 A1   18 A2                 
  2.676   2.742   2.796   2.796   2.849   2.929   2.972   2.991
 55 B1   77 A1   78 A1   56 B1   57 B1   79 A1   80 A1   81 A1                 
  3.009   3.022   3.031   3.039   3.069   3.161   3.186   3.193
 58 B1   82 A1   83 A1   59 B1   35 B2   84 A1   36 B2   60 B1                 
  3.193   3.280   3.286   3.319   3.472   3.530   3.563   3.756
 19 A2   37 B2   20 A2   61 B1   38 B2   85 A1   62 B1   63 B1                 
  3.780   3.899   3.921   4.018   4.139   4.383   4.438   4.501
 86 A1   64 B1   87 A1   88 A1   89 A1   65 B1   90 A1   91 A1                 
  4.515   4.558   4.609   4.637   4.789   4.960   5.114   5.261
 66 B1   21 A2   92 A1   39 B2   67 B1   93 A1   94 A1   68 B1                 
  5.439   5.446   5.759   5.778   6.183   7.393   8.256   8.348
 95 A1   69 B1   96 A1   70 B1   97 A1   98 A1   40 B2   71 B1                 
  8.448  20.615  20.685  20.706  20.824  20.851  21.124  49.625
 99 A1  100 A1  101 A1   72 B1  102 A1   73 B1  103 A1  104 A1                 
 80.185  80.258  80.280  80.379  80.404  80.610 293.938 294.033
105 A1  106 A1   74 B1  107 A1   75 B1  108 A1   41 B2   76 B1                 
294.152 322.027 322.095 322.116 322.200 322.221 322.3881028.598
109 A1  110 A1  111 A1   77 B1  112 A1   78 B1  113 A1  114 A1                 
*******1431.6581431.6781431.7481431.7671431.9068749.8358749.890
115 A1  116 A1   79 B1  117 A1   80 B1  118 A1  119 A1  120 A1                 
*******8749.9638749.9808750.091
 81 B1  121 A1   82 B1  122 A1                                                 
 
 Beta MOs, Restricted
 -- Occupied --                  
-490.03  -65.16  -58.52  -58.52  -58.52  -11.30  -11.26  -11.26
  1 A1    2 A1    3 A1    1 B2    1 B1    4 A1    2 B1    5 A1                 
-11.254 -11.254 -11.251  -9.840  -7.454  -7.445  -7.445  -3.193
  6 A1    3 B1    7 A1    8 A1    9 A1    4 B1    2 B2   10 A1                 
 -3.189  -3.189  -3.179  -3.179  -1.180  -1.076  -1.036  -0.977
  3 B2    5 B1   11 A1    1 A2   12 A1   13 A1    6 B1   14 A1                 
 -0.849  -0.820  -0.714  -0.648  -0.647  -0.608  -0.578  -0.535
  7 B1   15 A1   16 A1    8 B1   17 A1    9 B1   18 A1    4 B2                 
 -0.518  -0.496  -0.440  -0.417  -0.354  -0.335
 10 B1   19 A1    5 B2   11 B1    2 A2    6 B2                                 
 -- Virtual --                   
  0.013   0.020   0.020   0.026   0.029   0.030   0.037   0.040
 20 A1   12 B1   21 A1    7 B2   13 B1   22 A1   23 A1    8 B2                 
  0.043   0.047   0.048   0.054   0.055   0.059   0.063   0.065
  3 A2   14 B1   24 A1    9 B2    4 A2   25 A1   15 B1   26 A1                 
  0.067   0.067   0.069   0.069   0.076   0.082   0.087   0.091
 16 B1   10 B2   27 A1   11 B2   17 B1   28 A1   29 A1   18 B1                 
  0.100   0.101   0.101   0.119   0.123   0.140   0.156   0.165
 12 B2    5 A2   30 A1   19 B1   31 A1   32 A1   13 B2   20 B1                 
  0.174   0.177   0.179   0.196   0.198   0.203   0.207   0.214
 14 B2   33 A1    6 A2   34 A1   21 B1   35 A1   15 B2   36 A1                 
  0.223   0.225   0.229   0.229   0.231   0.241   0.245   0.247
 22 B1   16 B2   37 A1   23 B1    7 A2   38 A1   17 B2   24 B1                 
  0.252   0.254   0.263   0.278   0.289   0.293   0.314   0.337
 39 A1   25 B1   40 A1   41 A1   26 B1   27 B1   42 A1   28 B1                 
  0.342   0.353   0.377   0.413   0.416   0.433   0.442   0.487
 43 A1   18 B2   44 A1   45 A1   29 B1   30 B1   46 A1   47 A1                 
  0.494   0.511   0.512   0.606   0.615   0.619   0.645   0.647
 31 B1   32 B1   48 A1   49 A1   33 B1   19 B2   34 B1   50 A1                 
  0.716   0.729   0.736   0.737   0.741   0.747   0.766   0.774
 51 A1   35 B1   20 B2   36 B1   52 A1   21 B2    8 A2   53 A1                 
  0.787   0.787   0.805   0.824   0.829   0.866   0.888   0.897
  9 A2   37 B1   22 B2   54 A1   10 A2   23 B2   55 A1   56 A1                 
  0.924   0.925   0.935   0.939   0.960   0.985   1.012   1.031
 38 B1   24 B2   57 A1   39 B1   58 A1   59 A1   40 B1   60 A1                 
  1.059   1.069   1.097   1.098   1.112   1.126   1.177   1.203
 41 B1   61 A1   42 B1   62 A1   63 A1   43 B1   44 B1   25 B2                 
  1.203   1.231   1.286   1.293   1.308   1.345   1.374   1.472
 64 A1   11 A2   65 A1   45 B1   12 A2   26 B2   13 A2   66 A1                 
  1.525   1.614   1.725   1.776   1.785   1.817   1.823   1.831
 27 B2   67 A1   46 B1   68 A1   47 B1   69 A1   28 B2   14 A2                 
  1.881   1.905   1.907   1.947   1.990   2.006   2.042   2.102
 29 B2   70 A1   48 B1   71 A1   49 B1   30 B2   15 A2   50 B1                 
  2.147   2.217   2.218   2.219   2.235   2.248   2.272   2.320
 72 A1   51 B1   31 B2   16 A2   52 B1   73 A1   32 B2   74 A1                 
  2.345   2.352   2.366   2.375   2.443   2.594   2.614   2.645
 75 A1   53 B1   17 A2   33 B2   54 B1   34 B2   76 A1   18 A2                 
  2.676   2.742   2.796   2.796   2.849   2.929   2.972   2.991
 55 B1   77 A1   78 A1   56 B1   57 B1   79 A1   80 A1   81 A1                 
  3.009   3.022   3.031   3.039   3.069   3.161   3.186   3.193
 58 B1   82 A1   83 A1   59 B1   35 B2   84 A1   36 B2   60 B1                 
  3.193   3.280   3.286   3.319   3.472   3.530   3.563   3.756
 19 A2   37 B2   20 A2   61 B1   38 B2   85 A1   62 B1   63 B1                 
  3.780   3.899   3.921   4.018   4.139   4.383   4.438   4.501
 86 A1   64 B1   87 A1   88 A1   89 A1   65 B1   90 A1   91 A1                 
  4.515   4.558   4.609   4.637   4.789   4.960   5.114   5.261
 66 B1   21 A2   92 A1   39 B2   67 B1   93 A1   94 A1   68 B1                 
  5.439   5.446   5.759   5.778   6.183   7.393   8.256   8.348
 95 A1   69 B1   96 A1   70 B1   97 A1   98 A1   40 B2   71 B1                 
  8.448  20.615  20.685  20.706  20.824  20.851  21.124  49.625
 99 A1  100 A1  101 A1   72 B1  102 A1   73 B1  103 A1  104 A1                 
 80.185  80.258  80.280  80.379  80.404  80.610 293.938 294.033
105 A1  106 A1   74 B1  107 A1   75 B1  108 A1   41 B2   76 B1                 
294.152 322.027 322.095 322.116 322.200 322.221 322.3881028.598
109 A1  110 A1  111 A1   77 B1  112 A1   78 B1  113 A1  114 A1                 
*******1431.6581431.6781431.7481431.7671431.9068749.8358749.890
115 A1  116 A1   79 B1  117 A1   80 B1  118 A1  119 A1  120 A1                 
*******8749.9638749.9808750.091
 81 B1  121 A1   82 B1  122 A1                                                 

 Occupation and symmetry of molecular orbitals

 Point group: C2v (4 irreducible representations).

                           A1   A2   B1   B2    All 
 ----------------------------------------------------
 All molecular orbitals:
  - Alpha                  122  21   82   41    266 
  - Beta                   122  21   82   41    266 
 ----------------------------------------------------
 Alpha orbitals:
  - Frozen occupied        4    0    2    1     7   
  - Active occupied        15   2    9    5     31  
  - Active virtual         103  19   71   35    228 
  - Frozen virtual         0    0    0    0     0   
 ----------------------------------------------------
 Beta orbitals:
  - Frozen occupied        4    0    2    1     7   
  - Active occupied        15   2    9    5     31  
  - Active virtual         103  19   71   35    228 
  - Frozen virtual         0    0    0    0     0   
 ----------------------------------------------------

 Import integrals:   CPU 0.00 s  wall 0.00 s

 Import integrals:   CPU 1640.56 s  wall 187.05 s

 MP2 amplitudes:   CPU 6.97 s  wall 5.31 s

           CCSD T amplitudes will be solved using DIIS.

           Start     Size      MaxIter   EConv     TConv     
           3         7         100       1.00e-06  1.00e-04  
 ------------------------------------------------------------------------------
           Energy (a.u.)   Ediff      Tdiff       Comment
 ------------------------------------------------------------------------------
         -2803.87938333                           
     1   -2803.83955963   3.98e-02   1.02e+00     
     2   -2803.87990366   4.03e-02   1.43e-01     
     3   -2803.87786984   2.03e-03   4.92e-02     
     4   -2803.88120395   3.33e-03   1.44e-02     Switched to DIIS steps.
     5   -2803.88218430   9.80e-04   1.19e-02     
     6   -2803.88218901   4.71e-06   2.20e-03     
     7   -2803.88218150   7.51e-06   1.10e-03     
     8   -2803.88218326   1.76e-06   2.14e-04     
     9   -2803.88218278   4.76e-07   8.04e-05     
 ------------------------------------------------------------------------------
         -2803.88218278                           CCSD T converged.

 SCF energy                 = -2802.54027620
 MP2 energy                 = -2803.87938333
 CCSD correlation energy     =    -1.34190658
 CCSD total energy           = -2803.88218278

 CCSD  T1^2 = 0.0086  T2^2 = 0.4137  Leading amplitudes:

 Amplitude    Orbitals with energies
  0.0181       2 (A2) A                  ->    8 (A2) A                   
              -0.3538                          0.7661                     
  0.0181       2 (A2) B                  ->    8 (A2) B                   
              -0.3538                          0.7661                     
 -0.0133       4 (B2) A                  ->    21 (B2) A                  
              -0.5346                          0.7475                     
 -0.0133       4 (B2) B                  ->    21 (B2) B                  
              -0.5346                          0.7475                     

 Amplitude    Orbitals with energies
 -0.0687       2 (A2) A      2 (A2) B    ->    5 (A2) A      5 (A2) B     
              -0.3538       -0.3538            0.1009        0.1009       
  0.0687       2 (A2) A      2 (A2) B    ->    5 (A2) B      5 (A2) A     
              -0.3538       -0.3538            0.1009        0.1009       
  0.0687       2 (A2) B      2 (A2) A    ->    5 (A2) A      5 (A2) B     
              -0.3538       -0.3538            0.1009        0.1009       
 -0.0687       2 (A2) B      2 (A2) A    ->    5 (A2) B      5 (A2) A     
              -0.3538       -0.3538            0.1009        0.1009       

 Computing CCSD intermediates for later calculations
 Finished.

           CCSD Lambda amplitudes will be solved using DIIS.
           Start     Size      MaxIter   EConv     LConv     
           3         7         100       1.00e-06  1.00e-04  
 ------------------------------------------------------------------------------
            Enorm      Ldiff       Comment
 ------------------------------------------------------------------------------
     1     5.94e-02   4.55e-02     
     2     1.14e-02   1.23e-03     
     3     3.88e-03   1.74e-03     
     4     1.59e-03   3.17e-04     Switched to DIIS steps.
     5     4.97e-04   3.13e-04     
     6     2.26e-04   7.66e-05     
     7     6.49e-05   2.87e-05     
     8     2.78e-05   4.32e-06     
     9     9.05e-06   9.66e-07     
    10     3.55e-06   8.43e-08     
    11     1.42e-06   1.45e-07     
    12     4.68e-07   8.67e-08     
 ------------------------------------------------------------------------------
                                   CCSD Lambda converged.

 CCSD calculation:   CPU 3075.40 s  wall 361.58 s

        Solving for CVS-EOMEE-CCSD A1 singlet states.

       EOMEE-CCSD-SINGLES right amplitudes will be solved using Davidson.
        Amplitudes will be solved using shifted  algorithm.
     Hard-coded thresholds: 
     LinDepThresh=1.00e-15  NormThresh=1.00e-06  ReorthogonThresh=1.00e-02

      Roots     MaxVec    MaxIter   Precond   Conv      Shift    
      20        1000      200       1         1.00e-04  1.00e+01  
 ------------------------------------------------------------------------------
      Iter ConvRoots NVecs ResNorm Current eigenvalues (eV)
 ------------------------------------------------------------------------------
      0    0      20    1.05e-03   303.8593   304.5677   304.7144   305.1075   305.2355   305.3237   305.5448   305.7190   305.7704   305.7966   305.8147   306.2963   306.4542   306.5220   306.5470   306.7264   307.0221   307.0680   307.4309   307.4807   
      1    0      40    5.09e-01   303.2105   303.7717   304.4779   304.5463   305.0787   305.1925   305.4770   305.4845   305.6081   305.7441   305.7737   306.0710   306.1373   306.4116   306.4481   306.5316   306.8335   307.0232   307.2783   307.3988   
      2    0      60    1.66e-02   298.2326   303.6707   304.3249   304.5229   305.0000   305.1558   305.3495   305.3778   305.4149   305.6971   305.7481   305.8367   306.0429   306.2956   306.3225   306.4579   306.6183   306.8284   307.1261   307.1769   
      3    4      80    1.31e-03   298.1733   303.6699*  304.3199   304.5223*  304.9987   305.1545   305.3218   305.3734   305.4081   305.6952*  305.7474*  305.8123   306.0369   306.2916   306.3195   306.4476   306.5326   306.7672   307.1144   307.1301   
      4    19     96    2.21e-05   298.1731*  303.6699*  304.3198*  304.5222*  304.9986*  305.1545*  305.3214*  305.3732*  305.4080*  305.6952*  305.7473*  305.8118*  306.0367*  306.2912*  306.3194*  306.4470*  306.5300   306.7657*  307.1142*  307.1291*  
      5    20     97    6.10e-06   298.1731*  303.6699*  304.3198*  304.5222*  304.9986*  305.1545*  305.3214*  305.3732*  305.4080*  305.6952*  305.7473*  305.8118*  306.0367*  306.2912*  306.3194*  306.4470*  306.5300*  306.7656*  307.1142*  307.1291*  

     Davidson procedure converged

        CVS-EOMEE-CCSD/MP2 right amplitudes will be solved using Davidson.
        Amplitudes will be solved using shifted  algorithm.
     Hard-coded thresholds: 
     LinDepThresh=1.00e-15  NormThresh=1.00e-06  ReorthogonThresh=1.00e-02

      Roots     MaxVec    MaxIter   Precond   Conv      Shift    
      20        1000      200       1         1.00e-04  1.00e+01  
 ------------------------------------------------------------------------------
      Iter ConvRoots NVecs ResNorm Current eigenvalues (eV)
 ------------------------------------------------------------------------------
      0    0      20    1.60e+00   298.1731   303.6699   304.3198   304.5222   304.9986   305.1545   305.3214   305.3732   305.4080   305.6952   305.7473   305.8118   306.0367   306.2912   306.3194   306.4470   306.5300   306.7656   307.1142   307.1291   
      1    0      40    9.62e+00   296.9762   301.6774   302.3129   302.5762   302.6212   303.0186   303.1678   303.2938   303.5107   303.6405   303.6435   303.7957   303.8836   304.0156   304.0877   304.3063   304.3486   304.3909   304.4394   304.9466   
      2    0      60    8.02e-02   288.7901   290.1781   290.9492   291.1795   291.4703   291.7852   291.9829   292.1137   292.4219   292.5812   292.7561   293.3488   296.8692   297.6220   298.2111   298.3327   298.6145   298.7919   298.9246   299.4466   
      3    0      80    1.79e-02   288.0489   289.6561   290.3764   290.6442   290.8917   291.2188   291.4108   291.5456   291.8487   292.0018   292.1575   292.5942   296.7737   297.5276   298.1170   298.2393   298.5208   298.6936   298.8318   299.3475   
      4    0      100   1.55e-03   287.8612   289.6226   290.3448   290.6096   290.8588   291.1879   291.3829   291.5192   291.8131   291.9660   292.1108   292.4401   296.7677   297.5228   298.1136   298.2353   298.5165   298.6868   298.8289   299.3403   
      5    1      120   2.70e-03   287.8255   289.6120   290.3348   290.5953   290.8465   291.1788   291.3753   291.5120   291.7988   291.9432   292.0794   292.3335   296.7653*  297.5199   298.1116   298.2328   298.5146   298.6812   298.8266   299.3298   
      6    3      139   5.17e-02   287.8168   289.6091   290.3325*  290.5894   290.8426   291.1754   291.3731*  291.5099*  291.7900   291.9246   292.0593   292.2862   296.4578   296.7658   297.4327   297.5264   298.1123   298.2323   298.5153   298.6754   
Found complex roots...
      7    5      156   5.42e-02   287.8120   289.6076*  290.3316*  290.5858   290.8404   291.1735   291.3721*  291.5091   291.7815   291.9083   292.0447   292.2585   293.5195   294.6999   295.3943   296.2817   296.4848   296.7650*  297.5194*  298.1089   
      8    9      171   2.51e-02   287.8115*  289.6071*  290.3312*  290.5849*  290.8392*  291.1721*  291.3713*  291.5077*  291.7779   291.9010   292.0364   292.2448   292.9024   293.6540   294.2529   294.3699   295.0665   295.3514   296.2345   296.7649*  
Found complex roots...
      9    10     182   9.85e-03   287.8114*  289.6071*  290.3311*  290.5849*  290.8390*  291.1718*  291.3711*  291.5072*  291.7773*  291.8980   292.0341*  292.2409   292.7865   293.3850   293.6889   294.0268   294.2645   294.8726   295.3871   296.0240   
Found complex roots...
      10   12     192   2.90e-03   287.8114*  289.6071*  290.3311*  290.5848*  290.8390*  291.1717*  291.3710*  291.5070*  291.7772*  291.8972*  292.0333*  292.2392*  292.7470   293.2958   293.5265   293.8582   294.0484   294.7672   295.1826   295.5764   
      11   12     200   1.50e-03   287.8114*  289.6071*  290.3311*  290.5848*  290.8390*  291.1717*  291.3710*  291.5070*  291.7771*  291.8968*  292.0329*  292.2385*  292.7380   293.2562   293.4708   293.7157   294.0008   294.7228   295.1281   295.4204   
Found complex roots...
      12   12     208   7.62e-04   287.8114*  289.6071*  290.3311*  290.5848*  290.8390*  291.1717*  291.3710*  291.5070*  291.7771*  291.8968*  292.0328*  292.2383*  292.7329   293.2375   293.4264   293.6039   293.9752   294.7020   295.0913   295.3833   
Found complex roots...
      13   13     216   4.65e-04   287.8114*  289.6071*  290.3311*  290.5848*  290.8390*  291.1717*  291.3710*  291.5070*  291.7771*  291.8968*  292.0327*  292.2381*  292.7306*  293.2329   293.3987   293.5598   293.9660   294.6880   295.0682   295.3453   
      14   15     223   2.47e-04   287.8114*  289.6071*  290.3311*  290.5848*  290.8389*  291.1717*  291.3710*  291.5070*  291.7771*  291.8967*  292.0326*  292.2380*  292.7301*  293.2312*  293.3918   293.5507   293.9631*  294.6822   295.0587   295.3082   
      15   18     228   2.03e-04   287.8114*  289.6071*  290.3311*  290.5848*  290.8389*  291.1717*  291.3710*  291.5070*  291.7771*  291.8967*  292.0326*  292.2380*  292.7300*  293.2308*  293.3889*  293.5486*  293.9627*  294.6795*  295.0552   295.2688   
Found complex roots...
      16   19     230   6.87e-05   287.8114*  289.6071*  290.3311*  290.5848*  290.8389*  291.1717*  291.3710*  291.5070*  291.7771*  291.8967*  292.0327*  292.2380*  292.7300*  293.2308*  293.3887*  293.5480*  293.9627*  294.6792*  295.0538*  295.2475   
Found complex roots...
      17   19     231   2.76e-05   287.8114*  289.6071*  290.3311*  290.5848*  290.8389*  291.1717*  291.3710*  291.5070*  291.7771*  291.8967*  292.0327*  292.2380*  292.7300*  293.2308*  293.3887*  293.5480*  293.9627*  294.6790*  295.0535*  295.2416   
      18   20     232   1.71e-05   287.8114*  289.6071*  290.3311*  290.5848*  290.8389*  291.1717*  291.3710*  291.5070*  291.7771*  291.8967*  292.0327*  292.2381*  292.7300*  293.2308*  293.3887*  293.5480*  293.9626*  294.6790*  295.0536*  295.2407*  

     Davidson procedure converged

 EOMEE transition 1/A1
 Total energy = -2793.30530849 a.u.  Excitation energy = 287.8114 eV.
 R0^2 = 0.0000  R1^2 = 0.8374  R2_CCVV^2 = 0.0019  R2_COVV^2 = 0.0804  Res^2 = 2.09e-06
 Conv-d = yes

 Amplitude    Transitions between orbitals
 -0.3045       4 (A1) A                  ->    32 (A1) A                  
 -0.3045       4 (A1) B                  ->    32 (A1) B                  
  0.2691       4 (A1) A                  ->    31 (A1) A                  
  0.2691       4 (A1) B                  ->    31 (A1) B                  
  0.2673       4 (A1) A                  ->    36 (A1) A                  
  0.2673       4 (A1) B                  ->    36 (A1) B                  
  0.1984       4 (A1) A                  ->    34 (A1) A                  
  0.1984       4 (A1) B                  ->    34 (A1) B                  
 -0.1955       4 (A1) A                  ->    28 (A1) A                  
 -0.1955       4 (A1) B                  ->    28 (A1) B                  
 -0.1292       4 (A1) A                  ->    30 (A1) A                  
 -0.1292       4 (A1) B                  ->    30 (A1) B                  
 -0.1234       4 (A1) A                  ->    39 (A1) A                  
 -0.1234       4 (A1) B                  ->    39 (A1) B                  

              Summary of significant orbitals:

               Number  Type             Irrep      Energy
               6       Occ  Alpha       4 (A1)    -11.3046
               6       Occ  Beta        4 (A1)    -11.3046
               60      Vir  Alpha      28 (A1)      0.0816
               65      Vir  Alpha      30 (A1)      0.1014
               67      Vir  Alpha      31 (A1)      0.1233
               68      Vir  Alpha      32 (A1)      0.1397
               74      Vir  Alpha      34 (A1)      0.1956
               78      Vir  Alpha      36 (A1)      0.2140
               87      Vir  Alpha      39 (A1)      0.2522
               60      Vir  Beta       28 (A1)      0.0816
               65      Vir  Beta       30 (A1)      0.1014
               67      Vir  Beta       31 (A1)      0.1233
               68      Vir  Beta       32 (A1)      0.1397
               74      Vir  Beta       34 (A1)      0.1956
               78      Vir  Beta       36 (A1)      0.2140
               87      Vir  Beta       39 (A1)      0.2522


 EOMEE transition 2/A1
 Total energy = -2793.23931925 a.u.  Excitation energy = 289.6070 eV.
 R0^2 = 0.0000  R1^2 = 0.7948  R2_CCVV^2 = 0.0016  R2_COVV^2 = 0.1018  Res^2 = 1.71e-06
 Conv-d = yes

 Amplitude    Transitions between orbitals
 -0.4013       4 (A1) A                  ->    20 (A1) A                  
 -0.4013       4 (A1) B                  ->    20 (A1) B                  
  0.2707       4 (A1) A                  ->    25 (A1) A                  
  0.2707       4 (A1) B                  ->    25 (A1) B                  
 -0.1944       4 (A1) A                  ->    26 (A1) A                  
 -0.1944       4 (A1) B                  ->    26 (A1) B                  
 -0.1930       4 (A1) A                  ->    28 (A1) A                  
 -0.1930       4 (A1) B                  ->    28 (A1) B                  
 -0.1343       4 (A1) A                  ->    21 (A1) A                  
 -0.1343       4 (A1) B                  ->    21 (A1) B                  
 -0.1323       4 (A1) A                  ->    22 (A1) A                  
 -0.1323       4 (A1) B                  ->    22 (A1) B                  
 -0.1176       4 (A1) A                  ->    34 (A1) A                  
 -0.1176       4 (A1) B                  ->    34 (A1) B                  

              Summary of significant orbitals:

               Number  Type             Irrep      Energy
               6       Occ  Alpha       4 (A1)    -11.3046
               6       Occ  Beta        4 (A1)    -11.3046
               39      Vir  Alpha      20 (A1)      0.0132
               41      Vir  Alpha      21 (A1)      0.0204
               44      Vir  Alpha      22 (A1)      0.0297
               52      Vir  Alpha      25 (A1)      0.0587
               54      Vir  Alpha      26 (A1)      0.0654
               60      Vir  Alpha      28 (A1)      0.0816
               74      Vir  Alpha      34 (A1)      0.1956
               39      Vir  Beta       20 (A1)      0.0132
               41      Vir  Beta       21 (A1)      0.0204
               44      Vir  Beta       22 (A1)      0.0297
               52      Vir  Beta       25 (A1)      0.0587
               54      Vir  Beta       26 (A1)      0.0654
               60      Vir  Beta       28 (A1)      0.0816
               74      Vir  Beta       34 (A1)      0.1956


 EOMEE transition 3/A1
 Total energy = -2793.21271134 a.u.  Excitation energy = 290.3311 eV.
 R0^2 = 0.0000  R1^2 = 0.7913  R2_CCVV^2 = 0.0016  R2_COVV^2 = 0.1035  Res^2 = 4.01e-06
 Conv-d = yes

 Amplitude    Transitions between orbitals
  0.4689       4 (A1) A                  ->    21 (A1) A                  
  0.4689       4 (A1) B                  ->    21 (A1) B                  
 -0.2311       4 (A1) A                  ->    20 (A1) A                  
 -0.2311       4 (A1) B                  ->    20 (A1) B                  
  0.2234       4 (A1) A                  ->    26 (A1) A                  
  0.2234       4 (A1) B                  ->    26 (A1) B                  
  0.1651       4 (A1) A                  ->    29 (A1) A                  
  0.1651       4 (A1) B                  ->    29 (A1) B                  
  0.1062       4 (A1) A                  ->    25 (A1) A                  
  0.1062       4 (A1) B                  ->    25 (A1) B                  
 -0.1035       4 (A1) A                  ->    31 (A1) A                  
 -0.1035       4 (A1) B                  ->    31 (A1) B                  

              Summary of significant orbitals:

               Number  Type             Irrep      Energy
               6       Occ  Alpha       4 (A1)    -11.3046
               6       Occ  Beta        4 (A1)    -11.3046
               39      Vir  Alpha      20 (A1)      0.0132
               41      Vir  Alpha      21 (A1)      0.0204
               52      Vir  Alpha      25 (A1)      0.0587
               54      Vir  Alpha      26 (A1)      0.0654
               61      Vir  Alpha      29 (A1)      0.0865
               67      Vir  Alpha      31 (A1)      0.1233
               39      Vir  Beta       20 (A1)      0.0132
               41      Vir  Beta       21 (A1)      0.0204
               52      Vir  Beta       25 (A1)      0.0587
               54      Vir  Beta       26 (A1)      0.0654
               61      Vir  Beta       29 (A1)      0.0865
               67      Vir  Beta       31 (A1)      0.1233


 EOMEE transition 4/A1
 Total energy = -2793.20338767 a.u.  Excitation energy = 290.5848 eV.
 R0^2 = 0.0000  R1^2 = 0.7948  R2_CCVV^2 = 0.0016  R2_COVV^2 = 0.1018  Res^2 = 6.36e-07
 Conv-d = yes

 Amplitude    Transitions between orbitals
  0.3840       4 (A1) A                  ->    23 (A1) A                  
  0.3840       4 (A1) B                  ->    23 (A1) B                  
 -0.2264       4 (A1) A                  ->    30 (A1) A                  
 -0.2264       4 (A1) B                  ->    30 (A1) B                  
 -0.2083       4 (A1) A                  ->    20 (A1) A                  
 -0.2083       4 (A1) B                  ->    20 (A1) B                  
  0.1879       4 (A1) A                  ->    24 (A1) A                  
  0.1879       4 (A1) B                  ->    24 (A1) B                  
  0.1833       4 (A1) A                  ->    28 (A1) A                  
  0.1833       4 (A1) B                  ->    28 (A1) B                  
  0.1339       4 (A1) A                  ->    29 (A1) A                  
  0.1339       4 (A1) B                  ->    29 (A1) B                  
  0.1239       4 (A1) A                  ->    32 (A1) A                  
  0.1239       4 (A1) B                  ->    32 (A1) B                  
 -0.1056       4 (A1) A                  ->    35 (A1) A                  
 -0.1056       4 (A1) B                  ->    35 (A1) B                  

              Summary of significant orbitals:

               Number  Type             Irrep      Energy
               6       Occ  Alpha       4 (A1)    -11.3046
               6       Occ  Beta        4 (A1)    -11.3046
               39      Vir  Alpha      20 (A1)      0.0132
               45      Vir  Alpha      23 (A1)      0.0365
               49      Vir  Alpha      24 (A1)      0.0478
               60      Vir  Alpha      28 (A1)      0.0816
               61      Vir  Alpha      29 (A1)      0.0865
               65      Vir  Alpha      30 (A1)      0.1014
               68      Vir  Alpha      32 (A1)      0.1397
               76      Vir  Alpha      35 (A1)      0.2026
               39      Vir  Beta       20 (A1)      0.0132
               45      Vir  Beta       23 (A1)      0.0365
               49      Vir  Beta       24 (A1)      0.0478
               60      Vir  Beta       28 (A1)      0.0816
               61      Vir  Beta       29 (A1)      0.0865
               65      Vir  Beta       30 (A1)      0.1014
               68      Vir  Beta       32 (A1)      0.1397
               76      Vir  Beta       35 (A1)      0.2026


 EOMEE transition 5/A1
 Total energy = -2793.19404799 a.u.  Excitation energy = 290.8389 eV.
 R0^2 = 0.0000  R1^2 = 0.7923  R2_CCVV^2 = 0.0016  R2_COVV^2 = 0.1030  Res^2 = 7.15e-07
 Conv-d = yes

 Amplitude    Transitions between orbitals
  0.5032       4 (A1) A                  ->    22 (A1) A                  
  0.5032       4 (A1) B                  ->    22 (A1) B                  
 -0.1741       4 (A1) A                  ->    20 (A1) A                  
 -0.1741       4 (A1) B                  ->    20 (A1) B                  
  0.1504       4 (A1) A                  ->    28 (A1) A                  
  0.1504       4 (A1) B                  ->    28 (A1) B                  
 -0.1310       4 (A1) A                  ->    27 (A1) A                  
 -0.1310       4 (A1) B                  ->    27 (A1) B                  
 -0.1172       4 (A1) A                  ->    23 (A1) A                  
 -0.1172       4 (A1) B                  ->    23 (A1) B                  
  0.1056       4 (A1) A                  ->    30 (A1) A                  
  0.1056       4 (A1) B                  ->    30 (A1) B                  

              Summary of significant orbitals:

               Number  Type             Irrep      Energy
               6       Occ  Alpha       4 (A1)    -11.3046
               6       Occ  Beta        4 (A1)    -11.3046
               39      Vir  Alpha      20 (A1)      0.0132
               44      Vir  Alpha      22 (A1)      0.0297
               45      Vir  Alpha      23 (A1)      0.0365
               57      Vir  Alpha      27 (A1)      0.0687
               60      Vir  Alpha      28 (A1)      0.0816
               65      Vir  Alpha      30 (A1)      0.1014
               39      Vir  Beta       20 (A1)      0.0132
               44      Vir  Beta       22 (A1)      0.0297
               45      Vir  Beta       23 (A1)      0.0365
               57      Vir  Beta       27 (A1)      0.0687
               60      Vir  Beta       28 (A1)      0.0816
               65      Vir  Beta       30 (A1)      0.1014


 EOMEE transition 6/A1
 Total energy = -2793.18182043 a.u.  Excitation energy = 291.1717 eV.
 R0^2 = 0.0000  R1^2 = 0.7938  R2_CCVV^2 = 0.0016  R2_COVV^2 = 0.1023  Res^2 = 1.08e-06
 Conv-d = yes

 Amplitude    Transitions between orbitals
  0.2786       4 (A1) A                  ->    20 (A1) A                  
  0.2786       4 (A1) B                  ->    20 (A1) B                  
  0.2399       4 (A1) A                  ->    21 (A1) A                  
  0.2399       4 (A1) B                  ->    21 (A1) B                  
  0.2322       4 (A1) A                  ->    25 (A1) A                  
  0.2322       4 (A1) B                  ->    25 (A1) B                  
  0.2143       4 (A1) A                  ->    24 (A1) A                  
  0.2143       4 (A1) B                  ->    24 (A1) B                  
 -0.2101       4 (A1) A                  ->    26 (A1) A                  
 -0.2101       4 (A1) B                  ->    26 (A1) B                  
  0.1785       4 (A1) A                  ->    23 (A1) A                  
  0.1785       4 (A1) B                  ->    23 (A1) B                  
  0.1376       4 (A1) A                  ->    22 (A1) A                  
  0.1376       4 (A1) B                  ->    22 (A1) B                  
 -0.1229       4 (A1) A                  ->    33 (A1) A                  
 -0.1229       4 (A1) B                  ->    33 (A1) B                  
 -0.1165       4 (A1) A                  ->    28 (A1) A                  
 -0.1165       4 (A1) B                  ->    28 (A1) B                  
 -0.1036       4 (A1) A                  ->    27 (A1) A                  
 -0.1036       4 (A1) B                  ->    27 (A1) B                  

              Summary of significant orbitals:

               Number  Type             Irrep      Energy
               6       Occ  Alpha       4 (A1)    -11.3046
               6       Occ  Beta        4 (A1)    -11.3046
               39      Vir  Alpha      20 (A1)      0.0132
               41      Vir  Alpha      21 (A1)      0.0204
               44      Vir  Alpha      22 (A1)      0.0297
               45      Vir  Alpha      23 (A1)      0.0365
               49      Vir  Alpha      24 (A1)      0.0478
               52      Vir  Alpha      25 (A1)      0.0587
               54      Vir  Alpha      26 (A1)      0.0654
               57      Vir  Alpha      27 (A1)      0.0687
               60      Vir  Alpha      28 (A1)      0.0816
               72      Vir  Alpha      33 (A1)      0.1769
               39      Vir  Beta       20 (A1)      0.0132
               41      Vir  Beta       21 (A1)      0.0204
               44      Vir  Beta       22 (A1)      0.0297
               45      Vir  Beta       23 (A1)      0.0365
               49      Vir  Beta       24 (A1)      0.0478
               52      Vir  Beta       25 (A1)      0.0587
               54      Vir  Beta       26 (A1)      0.0654
               57      Vir  Beta       27 (A1)      0.0687
               60      Vir  Beta       28 (A1)      0.0816
               72      Vir  Beta       33 (A1)      0.1769


 EOMEE transition 7/A1
 Total energy = -2793.17449595 a.u.  Excitation energy = 291.3710 eV.
 R0^2 = 0.0000  R1^2 = 0.7928  R2_CCVV^2 = 0.0016  R2_COVV^2 = 0.1028  Res^2 = 9.48e-06
 Conv-d = yes

 Amplitude    Transitions between orbitals
  0.3097       4 (A1) A                  ->    25 (A1) A                  
  0.3097       4 (A1) B                  ->    25 (A1) B                  
 -0.2917       4 (A1) A                  ->    24 (A1) A                  
 -0.2917       4 (A1) B                  ->    24 (A1) B                  
  0.2730       4 (A1) A                  ->    23 (A1) A                  
  0.2730       4 (A1) B                  ->    23 (A1) B                  
 -0.2072       4 (A1) A                  ->    21 (A1) A                  
 -0.2072       4 (A1) B                  ->    21 (A1) B                  
  0.1379       4 (A1) A                  ->    26 (A1) A                  
  0.1379       4 (A1) B                  ->    26 (A1) B                  
  0.1247       4 (A1) A                  ->    22 (A1) A                  
  0.1247       4 (A1) B                  ->    22 (A1) B                  
  0.1196       4 (A1) A                  ->    27 (A1) A                  
  0.1196       4 (A1) B                  ->    27 (A1) B                  
 -0.1087       4 (A1) A                  ->    31 (A1) A                  
 -0.1087       4 (A1) B                  ->    31 (A1) B                  

              Summary of significant orbitals:

               Number  Type             Irrep      Energy
               6       Occ  Alpha       4 (A1)    -11.3046
               6       Occ  Beta        4 (A1)    -11.3046
               41      Vir  Alpha      21 (A1)      0.0204
               44      Vir  Alpha      22 (A1)      0.0297
               45      Vir  Alpha      23 (A1)      0.0365
               49      Vir  Alpha      24 (A1)      0.0478
               52      Vir  Alpha      25 (A1)      0.0587
               54      Vir  Alpha      26 (A1)      0.0654
               57      Vir  Alpha      27 (A1)      0.0687
               67      Vir  Alpha      31 (A1)      0.1233
               41      Vir  Beta       21 (A1)      0.0204
               44      Vir  Beta       22 (A1)      0.0297
               45      Vir  Beta       23 (A1)      0.0365
               49      Vir  Beta       24 (A1)      0.0478
               52      Vir  Beta       25 (A1)      0.0587
               54      Vir  Beta       26 (A1)      0.0654
               57      Vir  Beta       27 (A1)      0.0687
               67      Vir  Beta       31 (A1)      0.1233


 EOMEE transition 8/A1
 Total energy = -2793.16949600 a.u.  Excitation energy = 291.5070 eV.
 R0^2 = 0.0000  R1^2 = 0.7927  R2_CCVV^2 = 0.0016  R2_COVV^2 = 0.1028  Res^2 = 3.84e-06
 Conv-d = yes

 Amplitude    Transitions between orbitals
 -0.3894       4 (A1) A                  ->    26 (A1) A                  
 -0.3894       4 (A1) B                  ->    26 (A1) B                  
 -0.3629       4 (A1) A                  ->    24 (A1) A                  
 -0.3629       4 (A1) B                  ->    24 (A1) B                  
 -0.1791       4 (A1) A                  ->    25 (A1) A                  
 -0.1791       4 (A1) B                  ->    25 (A1) B                  
  0.1567       4 (A1) A                  ->    21 (A1) A                  
  0.1567       4 (A1) B                  ->    21 (A1) B                  
  0.1321       4 (A1) A                  ->    23 (A1) A                  
  0.1321       4 (A1) B                  ->    23 (A1) B                  
 -0.1087       4 (A1) A                  ->    32 (A1) A                  
 -0.1087       4 (A1) B                  ->    32 (A1) B                  

              Summary of significant orbitals:

               Number  Type             Irrep      Energy
               6       Occ  Alpha       4 (A1)    -11.3046
               6       Occ  Beta        4 (A1)    -11.3046
               41      Vir  Alpha      21 (A1)      0.0204
               45      Vir  Alpha      23 (A1)      0.0365
               49      Vir  Alpha      24 (A1)      0.0478
               52      Vir  Alpha      25 (A1)      0.0587
               54      Vir  Alpha      26 (A1)      0.0654
               68      Vir  Alpha      32 (A1)      0.1397
               41      Vir  Beta       21 (A1)      0.0204
               45      Vir  Beta       23 (A1)      0.0365
               49      Vir  Beta       24 (A1)      0.0478
               52      Vir  Beta       25 (A1)      0.0587
               54      Vir  Beta       26 (A1)      0.0654
               68      Vir  Beta       32 (A1)      0.1397


 EOMEE transition 9/A1
 Total energy = -2793.15957097 a.u.  Excitation energy = 291.7771 eV.
 R0^2 = 0.0000  R1^2 = 0.7933  R2_CCVV^2 = 0.0016  R2_COVV^2 = 0.1025  Res^2 = 7.64e-07
 Conv-d = yes

 Amplitude    Transitions between orbitals
 -0.2640       4 (A1) A                  ->    23 (A1) A                  
 -0.2640       4 (A1) B                  ->    23 (A1) B                  
  0.2610       4 (A1) A                  ->    29 (A1) A                  
  0.2610       4 (A1) B                  ->    29 (A1) B                  
  0.2282       4 (A1) A                  ->    25 (A1) A                  
  0.2282       4 (A1) B                  ->    25 (A1) B                  
 -0.2009       4 (A1) A                  ->    30 (A1) A                  
 -0.2009       4 (A1) B                  ->    30 (A1) B                  
  0.2007       4 (A1) A                  ->    28 (A1) A                  
  0.2007       4 (A1) B                  ->    28 (A1) B                  
 -0.1472       4 (A1) A                  ->    22 (A1) A                  
 -0.1472       4 (A1) B                  ->    22 (A1) B                  
  0.1328       4 (A1) A                  ->    20 (A1) A                  
  0.1328       4 (A1) B                  ->    20 (A1) B                  
 -0.1263       4 (A1) A                  ->    26 (A1) A                  
 -0.1263       4 (A1) B                  ->    26 (A1) B                  
 -0.1259       4 (A1) A                  ->    24 (A1) A                  
 -0.1259       4 (A1) B                  ->    24 (A1) B                  

              Summary of significant orbitals:

               Number  Type             Irrep      Energy
               6       Occ  Alpha       4 (A1)    -11.3046
               6       Occ  Beta        4 (A1)    -11.3046
               39      Vir  Alpha      20 (A1)      0.0132
               44      Vir  Alpha      22 (A1)      0.0297
               45      Vir  Alpha      23 (A1)      0.0365
               49      Vir  Alpha      24 (A1)      0.0478
               52      Vir  Alpha      25 (A1)      0.0587
               54      Vir  Alpha      26 (A1)      0.0654
               60      Vir  Alpha      28 (A1)      0.0816
               61      Vir  Alpha      29 (A1)      0.0865
               65      Vir  Alpha      30 (A1)      0.1014
               39      Vir  Beta       20 (A1)      0.0132
               44      Vir  Beta       22 (A1)      0.0297
               45      Vir  Beta       23 (A1)      0.0365
               49      Vir  Beta       24 (A1)      0.0478
               52      Vir  Beta       25 (A1)      0.0587
               54      Vir  Beta       26 (A1)      0.0654
               60      Vir  Beta       28 (A1)      0.0816
               61      Vir  Beta       29 (A1)      0.0865
               65      Vir  Beta       30 (A1)      0.1014


 EOMEE transition 10/A1
 Total energy = -2793.15517531 a.u.  Excitation energy = 291.8967 eV.
 R0^2 = 0.0000  R1^2 = 0.7933  R2_CCVV^2 = 0.0016  R2_COVV^2 = 0.1025  Res^2 = 2.00e-06
 Conv-d = yes

 Amplitude    Transitions between orbitals
 -0.3943       4 (A1) A                  ->    27 (A1) A                  
 -0.3943       4 (A1) B                  ->    27 (A1) B                  
 -0.2208       4 (A1) A                  ->    22 (A1) A                  
 -0.2208       4 (A1) B                  ->    22 (A1) B                  
  0.2133       4 (A1) A                  ->    28 (A1) A                  
  0.2133       4 (A1) B                  ->    28 (A1) B                  
  0.1888       4 (A1) A                  ->    30 (A1) A                  
  0.1888       4 (A1) B                  ->    30 (A1) B                  
  0.1637       4 (A1) A                  ->    23 (A1) A                  
  0.1637       4 (A1) B                  ->    23 (A1) B                  
 -0.1293       4 (A1) A                  ->    32 (A1) A                  
 -0.1293       4 (A1) B                  ->    32 (A1) B                  
 -0.1109       4 (A1) A                  ->    33 (A1) A                  
 -0.1109       4 (A1) B                  ->    33 (A1) B                  

              Summary of significant orbitals:

               Number  Type             Irrep      Energy
               6       Occ  Alpha       4 (A1)    -11.3046
               6       Occ  Beta        4 (A1)    -11.3046
               44      Vir  Alpha      22 (A1)      0.0297
               45      Vir  Alpha      23 (A1)      0.0365
               57      Vir  Alpha      27 (A1)      0.0687
               60      Vir  Alpha      28 (A1)      0.0816
               65      Vir  Alpha      30 (A1)      0.1014
               68      Vir  Alpha      32 (A1)      0.1397
               72      Vir  Alpha      33 (A1)      0.1769
               44      Vir  Beta       22 (A1)      0.0297
               45      Vir  Beta       23 (A1)      0.0365
               57      Vir  Beta       27 (A1)      0.0687
               60      Vir  Beta       28 (A1)      0.0816
               65      Vir  Beta       30 (A1)      0.1014
               68      Vir  Beta       32 (A1)      0.1397
               72      Vir  Beta       33 (A1)      0.1769


 EOMEE transition 11/A1
 Total energy = -2793.15017962 a.u.  Excitation energy = 292.0327 eV.
 R0^2 = 0.0000  R1^2 = 0.7917  R2_CCVV^2 = 0.0016  R2_COVV^2 = 0.1033  Res^2 = 1.84e-06
 Conv-d = yes

 Amplitude    Transitions between orbitals
  0.4568       4 (A1) A                  ->    29 (A1) A                  
  0.4568       4 (A1) B                  ->    29 (A1) B                  
 -0.2262       4 (A1) A                  ->    28 (A1) A                  
 -0.2262       4 (A1) B                  ->    28 (A1) B                  
  0.1557       4 (A1) A                  ->    30 (A1) A                  
  0.1557       4 (A1) B                  ->    30 (A1) B                  
 -0.1454       4 (A1) A                  ->    25 (A1) A                  
 -0.1454       4 (A1) B                  ->    25 (A1) B                  
 -0.1429       4 (A1) A                  ->    27 (A1) A                  
 -0.1429       4 (A1) B                  ->    27 (A1) B                  
 -0.1401       4 (A1) A                  ->    21 (A1) A                  
 -0.1401       4 (A1) B                  ->    21 (A1) B                  
 -0.1318       4 (A1) A                  ->    31 (A1) A                  
 -0.1318       4 (A1) B                  ->    31 (A1) B                  

              Summary of significant orbitals:

               Number  Type             Irrep      Energy
               6       Occ  Alpha       4 (A1)    -11.3046
               6       Occ  Beta        4 (A1)    -11.3046
               41      Vir  Alpha      21 (A1)      0.0204
               52      Vir  Alpha      25 (A1)      0.0587
               57      Vir  Alpha      27 (A1)      0.0687
               60      Vir  Alpha      28 (A1)      0.0816
               61      Vir  Alpha      29 (A1)      0.0865
               65      Vir  Alpha      30 (A1)      0.1014
               67      Vir  Alpha      31 (A1)      0.1233
               41      Vir  Beta       21 (A1)      0.0204
               52      Vir  Beta       25 (A1)      0.0587
               57      Vir  Beta       27 (A1)      0.0687
               60      Vir  Beta       28 (A1)      0.0816
               61      Vir  Beta       29 (A1)      0.0865
               65      Vir  Beta       30 (A1)      0.1014
               67      Vir  Beta       31 (A1)      0.1233


 EOMEE transition 12/A1
 Total energy = -2793.14263184 a.u.  Excitation energy = 292.2380 eV.
 R0^2 = 0.0000  R1^2 = 0.7935  R2_CCVV^2 = 0.0016  R2_COVV^2 = 0.1025  Res^2 = 2.19e-06
 Conv-d = yes

 Amplitude    Transitions between orbitals
 -0.3714       4 (A1) A                  ->    27 (A1) A                  
 -0.3714       4 (A1) B                  ->    27 (A1) B                  
 -0.2950       4 (A1) A                  ->    30 (A1) A                  
 -0.2950       4 (A1) B                  ->    30 (A1) B                  
 -0.2264       4 (A1) A                  ->    28 (A1) A                  
 -0.2264       4 (A1) B                  ->    28 (A1) B                  
 -0.1704       4 (A1) A                  ->    24 (A1) A                  
 -0.1704       4 (A1) B                  ->    24 (A1) B                  
  0.1427       4 (A1) A                  ->    32 (A1) A                  
  0.1427       4 (A1) B                  ->    32 (A1) B                  
 -0.1172       4 (A1) A                  ->    25 (A1) A                  
 -0.1172       4 (A1) B                  ->    25 (A1) B                  
 -0.1110       4 (A1) A                  ->    29 (A1) A                  
 -0.1110       4 (A1) B                  ->    29 (A1) B                  

              Summary of significant orbitals:

               Number  Type             Irrep      Energy
               6       Occ  Alpha       4 (A1)    -11.3046
               6       Occ  Beta        4 (A1)    -11.3046
               49      Vir  Alpha      24 (A1)      0.0478
               52      Vir  Alpha      25 (A1)      0.0587
               57      Vir  Alpha      27 (A1)      0.0687
               60      Vir  Alpha      28 (A1)      0.0816
               61      Vir  Alpha      29 (A1)      0.0865
               65      Vir  Alpha      30 (A1)      0.1014
               68      Vir  Alpha      32 (A1)      0.1397
               49      Vir  Beta       24 (A1)      0.0478
               52      Vir  Beta       25 (A1)      0.0587
               57      Vir  Beta       27 (A1)      0.0687
               60      Vir  Beta       28 (A1)      0.0816
               61      Vir  Beta       29 (A1)      0.0865
               65      Vir  Beta       30 (A1)      0.1014
               68      Vir  Beta       32 (A1)      0.1397


 EOMEE transition 13/A1
 Total energy = -2793.12455384 a.u.  Excitation energy = 292.7300 eV.
 R0^2 = 0.0000  R1^2 = 0.7923  R2_CCVV^2 = 0.0016  R2_COVV^2 = 0.1030  Res^2 = 1.33e-05
 Conv-d = yes

 Amplitude    Transitions between orbitals
 -0.4220       4 (A1) A                  ->    31 (A1) A                  
 -0.4220       4 (A1) B                  ->    31 (A1) B                  
 -0.2146       4 (A1) A                  ->    32 (A1) A                  
 -0.2146       4 (A1) B                  ->    32 (A1) B                  
 -0.1907       4 (A1) A                  ->    30 (A1) A                  
 -0.1907       4 (A1) B                  ->    30 (A1) B                  
  0.1675       4 (A1) A                  ->    33 (A1) A                  
  0.1675       4 (A1) B                  ->    33 (A1) B                  
  0.1622       4 (A1) A                  ->    24 (A1) A                  
  0.1622       4 (A1) B                  ->    24 (A1) B                  
 -0.1224       4 (A1) A                  ->    27 (A1) A                  
 -0.1224       4 (A1) B                  ->    27 (A1) B                  
 -0.1189       4 (A1) A                  ->    41 (A1) A                  
 -0.1189       4 (A1) B                  ->    41 (A1) B                  
 -0.1144       4 (A1) A                  ->    26 (A1) A                  
 -0.1144       4 (A1) B                  ->    26 (A1) B                  
  0.1091       4 (A1) A                  ->    36 (A1) A                  
  0.1091       4 (A1) B                  ->    36 (A1) B                  

              Summary of significant orbitals:

               Number  Type             Irrep      Energy
               6       Occ  Alpha       4 (A1)    -11.3046
               6       Occ  Beta        4 (A1)    -11.3046
               49      Vir  Alpha      24 (A1)      0.0478
               54      Vir  Alpha      26 (A1)      0.0654
               57      Vir  Alpha      27 (A1)      0.0687
               65      Vir  Alpha      30 (A1)      0.1014
               67      Vir  Alpha      31 (A1)      0.1233
               68      Vir  Alpha      32 (A1)      0.1397
               72      Vir  Alpha      33 (A1)      0.1769
               78      Vir  Alpha      36 (A1)      0.2140
               90      Vir  Alpha      41 (A1)      0.2779
               49      Vir  Beta       24 (A1)      0.0478
               54      Vir  Beta       26 (A1)      0.0654
               57      Vir  Beta       27 (A1)      0.0687
               65      Vir  Beta       30 (A1)      0.1014
               67      Vir  Beta       31 (A1)      0.1233
               68      Vir  Beta       32 (A1)      0.1397
               72      Vir  Beta       33 (A1)      0.1769
               78      Vir  Beta       36 (A1)      0.2140
               90      Vir  Beta       41 (A1)      0.2779


 EOMEE transition 14/A1
 Total energy = -2793.10614861 a.u.  Excitation energy = 293.2308 eV.
 R0^2 = 0.0000  R1^2 = 0.7967  R2_CCVV^2 = 0.0016  R2_COVV^2 = 0.1008  Res^2 = 4.76e-05
 Conv-d = yes

 Amplitude    Transitions between orbitals
  0.3019       4 (A1) A                  ->    33 (A1) A                  
  0.3019       4 (A1) B                  ->    33 (A1) B                  
  0.2928       4 (A1) A                  ->    34 (A1) A                  
  0.2928       4 (A1) B                  ->    34 (A1) B                  
  0.2293       4 (A1) A                  ->    30 (A1) A                  
  0.2293       4 (A1) B                  ->    30 (A1) B                  
  0.1854       4 (A1) A                  ->    32 (A1) A                  
  0.1854       4 (A1) B                  ->    32 (A1) B                  
 -0.1751       4 (A1) A                  ->    35 (A1) A                  
 -0.1751       4 (A1) B                  ->    35 (A1) B                  
 -0.1295       4 (A1) A                  ->    28 (A1) A                  
 -0.1295       4 (A1) B                  ->    28 (A1) B                  
 -0.1242       4 (A1) A                  ->    26 (A1) A                  
 -0.1242       4 (A1) B                  ->    26 (A1) B                  
  0.1100       4 (A1) A                  ->    36 (A1) A                  
  0.1100       4 (A1) B                  ->    36 (A1) B                  

              Summary of significant orbitals:

               Number  Type             Irrep      Energy
               6       Occ  Alpha       4 (A1)    -11.3046
               6       Occ  Beta        4 (A1)    -11.3046
               54      Vir  Alpha      26 (A1)      0.0654
               60      Vir  Alpha      28 (A1)      0.0816
               65      Vir  Alpha      30 (A1)      0.1014
               68      Vir  Alpha      32 (A1)      0.1397
               72      Vir  Alpha      33 (A1)      0.1769
               74      Vir  Alpha      34 (A1)      0.1956
               76      Vir  Alpha      35 (A1)      0.2026
               78      Vir  Alpha      36 (A1)      0.2140
               54      Vir  Beta       26 (A1)      0.0654
               60      Vir  Beta       28 (A1)      0.0816
               65      Vir  Beta       30 (A1)      0.1014
               68      Vir  Beta       32 (A1)      0.1397
               72      Vir  Beta       33 (A1)      0.1769
               74      Vir  Beta       34 (A1)      0.1956
               76      Vir  Beta       35 (A1)      0.2026
               78      Vir  Beta       36 (A1)      0.2140


 EOMEE transition 15/A1
 Total energy = -2793.10034717 a.u.  Excitation energy = 293.3887 eV.
 R0^2 = 0.0000  R1^2 = 0.7948  R2_CCVV^2 = 0.0016  R2_COVV^2 = 0.1018  Res^2 = 2.95e-05
 Conv-d = yes

 Amplitude    Transitions between orbitals
  0.3180       4 (A1) A                  ->    33 (A1) A                  
  0.3180       4 (A1) B                  ->    33 (A1) B                  
  0.3089       4 (A1) A                  ->    35 (A1) A                  
  0.3089       4 (A1) B                  ->    35 (A1) B                  
 -0.2516       4 (A1) A                  ->    34 (A1) A                  
 -0.2516       4 (A1) B                  ->    34 (A1) B                  
  0.1651       4 (A1) A                  ->    28 (A1) A                  
  0.1651       4 (A1) B                  ->    28 (A1) B                  
  0.1603       4 (A1) A                  ->    31 (A1) A                  
  0.1603       4 (A1) B                  ->    31 (A1) B                  
  0.1107       4 (A1) A                  ->    32 (A1) A                  
  0.1107       4 (A1) B                  ->    32 (A1) B                  
  0.1090       4 (A1) A                  ->    36 (A1) A                  
  0.1090       4 (A1) B                  ->    36 (A1) B                  
 -0.1025       4 (A1) A                  ->    43 (A1) A                  
 -0.1025       4 (A1) B                  ->    43 (A1) B                  

              Summary of significant orbitals:

               Number  Type             Irrep      Energy
               6       Occ  Alpha       4 (A1)    -11.3046
               6       Occ  Beta        4 (A1)    -11.3046
               60      Vir  Alpha      28 (A1)      0.0816
               67      Vir  Alpha      31 (A1)      0.1233
               68      Vir  Alpha      32 (A1)      0.1397
               72      Vir  Alpha      33 (A1)      0.1769
               74      Vir  Alpha      34 (A1)      0.1956
               76      Vir  Alpha      35 (A1)      0.2026
               78      Vir  Alpha      36 (A1)      0.2140
               95      Vir  Alpha      43 (A1)      0.3417
               60      Vir  Beta       28 (A1)      0.0816
               67      Vir  Beta       31 (A1)      0.1233
               68      Vir  Beta       32 (A1)      0.1397
               72      Vir  Beta       33 (A1)      0.1769
               74      Vir  Beta       34 (A1)      0.1956
               76      Vir  Beta       35 (A1)      0.2026
               78      Vir  Beta       36 (A1)      0.2140
               95      Vir  Beta       43 (A1)      0.3417


 EOMEE transition 16/A1
 Total energy = -2793.09449225 a.u.  Excitation energy = 293.5480 eV.
 R0^2 = 0.0000  R1^2 = 0.7937  R2_CCVV^2 = 0.0016  R2_COVV^2 = 0.1023  Res^2 = 1.90e-05
 Conv-d = yes

 Amplitude    Transitions between orbitals
 -0.3839       4 (A1) A                  ->    35 (A1) A                  
 -0.3839       4 (A1) B                  ->    35 (A1) B                  
 -0.2579       4 (A1) A                  ->    34 (A1) A                  
 -0.2579       4 (A1) B                  ->    34 (A1) B                  
 -0.2360       4 (A1) A                  ->    32 (A1) A                  
 -0.2360       4 (A1) B                  ->    32 (A1) B                  
  0.1850       4 (A1) A                  ->    33 (A1) A                  
  0.1850       4 (A1) B                  ->    33 (A1) B                  
  0.1767       4 (A1) A                  ->    31 (A1) A                  
  0.1767       4 (A1) B                  ->    31 (A1) B                  
 -0.1040       4 (A1) A                  ->    36 (A1) A                  
 -0.1040       4 (A1) B                  ->    36 (A1) B                  

              Summary of significant orbitals:

               Number  Type             Irrep      Energy
               6       Occ  Alpha       4 (A1)    -11.3046
               6       Occ  Beta        4 (A1)    -11.3046
               67      Vir  Alpha      31 (A1)      0.1233
               68      Vir  Alpha      32 (A1)      0.1397
               72      Vir  Alpha      33 (A1)      0.1769
               74      Vir  Alpha      34 (A1)      0.1956
               76      Vir  Alpha      35 (A1)      0.2026
               78      Vir  Alpha      36 (A1)      0.2140
               67      Vir  Beta       31 (A1)      0.1233
               68      Vir  Beta       32 (A1)      0.1397
               72      Vir  Beta       33 (A1)      0.1769
               74      Vir  Beta       34 (A1)      0.1956
               76      Vir  Beta       35 (A1)      0.2026
               78      Vir  Beta       36 (A1)      0.2140


 EOMEE transition 17/A1
 Total energy = -2793.07925446 a.u.  Excitation energy = 293.9626 eV.
 R0^2 = 0.0000  R1^2 = 0.7947  R2_CCVV^2 = 0.0016  R2_COVV^2 = 0.1018  Res^2 = 4.28e-05
 Conv-d = yes

 Amplitude    Transitions between orbitals
 -0.3830       4 (A1) A                  ->    36 (A1) A                  
 -0.3830       4 (A1) B                  ->    36 (A1) B                  
  0.2203       4 (A1) A                  ->    33 (A1) A                  
  0.2203       4 (A1) B                  ->    33 (A1) B                  
  0.1806       4 (A1) A                  ->    38 (A1) A                  
  0.1806       4 (A1) B                  ->    38 (A1) B                  
  0.1755       4 (A1) A                  ->    35 (A1) A                  
[...]
   ||gamma^AB||*||gamma^BA||: 0.759108

 ------------------------------------------------------------------------------
 State A: ccsd: 0/A1
 State B: cvs_eomee_ccsd/rhfref/singlets: 6/B2
 Transition dipole moment (a.u.):
   A->B: 0.004987 (X 0.000000, Y -0.004987, Z 0.000000)
   B->A: 0.004870 (X 0.000000, Y -0.004870, Z 0.000000)
 Oscillator strength (a.u.): 0.000174
 Norm of one-particle transition density matrix:
   A->B: 0.893625;   B->A: 0.848559
   ||gamma^AB||*||gamma^BA||: 0.758293

 ------------------------------------------------------------------------------
 State A: ccsd: 0/A1
 State B: cvs_eomee_ccsd/rhfref/singlets: 7/B2
 Transition dipole moment (a.u.):
   A->B: 0.010745 (X 0.000000, Y 0.010745, Z 0.000000)
   B->A: 0.010478 (X 0.000000, Y 0.010478, Z 0.000000)
 Oscillator strength (a.u.): 0.000808
 Norm of one-particle transition density matrix:
   A->B: 0.890947;   B->A: 0.849326
   ||gamma^AB||*||gamma^BA||: 0.756704

 ------------------------------------------------------------------------------
 State A: ccsd: 0/A1
 State B: cvs_eomee_ccsd/rhfref/singlets: 8/B2
 Transition dipole moment (a.u.):
   A->B: 0.006349 (X 0.000000, Y -0.006349, Z 0.000000)
   B->A: 0.006067 (X 0.000000, Y -0.006067, Z 0.000000)
 Oscillator strength (a.u.): 0.000277
 Norm of one-particle transition density matrix:
   A->B: 0.888408;   B->A: 0.846541
   ||gamma^AB||*||gamma^BA||: 0.752074

 ------------------------------------------------------------------------------
 State A: ccsd: 0/A1
 State B: cvs_eomee_ccsd/rhfref/singlets: 9/B2
 Transition dipole moment (a.u.):
   A->B: 0.037833 (X 0.000000, Y -0.037833, Z 0.000000)
   B->A: 0.037197 (X 0.000000, Y -0.037197, Z 0.000000)
 Oscillator strength (a.u.): 0.010118
 Norm of one-particle transition density matrix:
   A->B: 0.889842;   B->A: 0.853318
   ||gamma^AB||*||gamma^BA||: 0.759318

 ------------------------------------------------------------------------------
 State A: ccsd: 0/A1
 State B: cvs_eomee_ccsd/rhfref/singlets: 10/B2
 Transition dipole moment (a.u.):
   A->B: 0.001448 (X 0.000000, Y 0.001448, Z 0.000000)
   B->A: 0.002904 (X 0.000000, Y 0.002904, Z 0.000000)
 Oscillator strength (a.u.): 0.000030
 Norm of one-particle transition density matrix:
   A->B: 0.888472;   B->A: 0.848186
   ||gamma^AB||*||gamma^BA||: 0.753589

 ------------------------------------------------------------------------------
 State A: ccsd: 0/A1
 State B: cvs_eomee_ccsd/rhfref/singlets: 11/B2
 Transition dipole moment (a.u.):
   A->B: 0.057488 (X 0.000000, Y -0.057488, Z 0.000000)
   B->A: 0.058444 (X 0.000000, Y -0.058444, Z 0.000000)
 Oscillator strength (a.u.): 0.024229
 Norm of one-particle transition density matrix:
   A->B: 0.921383;   B->A: 0.932968
   ||gamma^AB||*||gamma^BA||: 0.859621

 ------------------------------------------------------------------------------
 State A: ccsd: 0/A1
 State B: cvs_eomee_ccsd/rhfref/singlets: 12/B2
 Transition dipole moment (a.u.):
   A->B: 0.012443 (X 0.000000, Y -0.012443, Z 0.000000)
   B->A: 0.012125 (X 0.000000, Y -0.012125, Z 0.000000)
 Oscillator strength (a.u.): 0.001089
 Norm of one-particle transition density matrix:
   A->B: 0.891689;   B->A: 0.849557
   ||gamma^AB||*||gamma^BA||: 0.757541

 ------------------------------------------------------------------------------
 State A: ccsd: 0/A1
 State B: cvs_eomee_ccsd/rhfref/singlets: 13/B2
 Transition dipole moment (a.u.):
   A->B: 0.014299 (X 0.000000, Y 0.014299, Z 0.000000)
   B->A: 0.013927 (X 0.000000, Y 0.013927, Z 0.000000)
 Oscillator strength (a.u.): 0.001444
 Norm of one-particle transition density matrix:
   A->B: 0.885565;   B->A: 0.844061
   ||gamma^AB||*||gamma^BA||: 0.747471

 ------------------------------------------------------------------------------
 State A: ccsd: 0/A1
 State B: cvs_eomee_ccsd/rhfref/singlets: 14/B2
 Transition dipole moment (a.u.):
   A->B: 0.013604 (X 0.000000, Y 0.013604, Z 0.000000)
   B->A: 0.013302 (X 0.000000, Y 0.013302, Z 0.000000)
 Oscillator strength (a.u.): 0.001320
 Norm of one-particle transition density matrix:
   A->B: 0.946313;   B->A: 0.920031
   ||gamma^AB||*||gamma^BA||: 0.870637

 ------------------------------------------------------------------------------
 State A: ccsd: 0/A1
 State B: cvs_eomee_ccsd/rhfref/singlets: 15/B2
 Transition dipole moment (a.u.):
   A->B: 0.006577 (X 0.000000, Y -0.006577, Z 0.000000)
   B->A: 0.006371 (X 0.000000, Y -0.006371, Z 0.000000)
 Oscillator strength (a.u.): 0.000306
 Norm of one-particle transition density matrix:
   A->B: 0.946222;   B->A: 0.919194
   ||gamma^AB||*||gamma^BA||: 0.869762

 ------------------------------------------------------------------------------
 State A: ccsd: 0/A1
 State B: cvs_eomee_ccsd/rhfref/singlets: 16/B2
 Transition dipole moment (a.u.):
   A->B: 0.030836 (X 0.000000, Y 0.030836, Z 0.000000)
   B->A: 0.029967 (X 0.000000, Y 0.029967, Z 0.000000)
 Oscillator strength (a.u.): 0.006786
 Norm of one-particle transition density matrix:
   A->B: 0.945494;   B->A: 0.921542
   ||gamma^AB||*||gamma^BA||: 0.871313

 ------------------------------------------------------------------------------
 State A: ccsd: 0/A1
 State B: cvs_eomee_ccsd/rhfref/singlets: 17/B2
 Transition dipole moment (a.u.):
   A->B: 0.000211 (X 0.000000, Y 0.000211, Z 0.000000)
   B->A: 0.000103 (X 0.000000, Y 0.000103, Z 0.000000)
 Oscillator strength (a.u.): 0.000000
 Norm of one-particle transition density matrix:
   A->B: 0.062861;   B->A: 0.052039
   ||gamma^AB||*||gamma^BA||: 0.003271

 ------------------------------------------------------------------------------
 State A: ccsd: 0/A1
 State B: cvs_eomee_ccsd/rhfref/singlets: 18/B2
 Transition dipole moment (a.u.):
   A->B: 0.016231 (X 0.000000, Y 0.016231, Z 0.000000)
   B->A: 0.015523 (X 0.000000, Y 0.015523, Z 0.000000)
 Oscillator strength (a.u.): 0.001857
 Norm of one-particle transition density matrix:
   A->B: 0.943093;   B->A: 0.917498
   ||gamma^AB||*||gamma^BA||: 0.865286

 ------------------------------------------------------------------------------
 State A: ccsd: 0/A1
 State B: cvs_eomee_ccsd/rhfref/singlets: 19/B2
 Transition dipole moment (a.u.):
   A->B: 0.020278 (X 0.000000, Y -0.020278, Z 0.000000)
   B->A: 0.013575 (X 0.000000, Y -0.013575, Z 0.000000)
 Oscillator strength (a.u.): 0.002035
 Norm of one-particle transition density matrix:
   A->B: 0.220512;   B->A: 0.174307
   ||gamma^AB||*||gamma^BA||: 0.038437

 ------------------------------------------------------------------------------
 State A: ccsd: 0/A1
 State B: cvs_eomee_ccsd/rhfref/singlets: 20/B2
 Transition dipole moment (a.u.):
   A->B: 0.059009 (X 0.000000, Y 0.059009, Z 0.000000)
   B->A: 0.056688 (X 0.000000, Y 0.056688, Z 0.000000)
 Oscillator strength (a.u.): 0.024828
 Norm of one-particle transition density matrix:
   A->B: 0.888892;   B->A: 0.850658
   ||gamma^AB||*||gamma^BA||: 0.756143


 All requested transition properties have been computed

 Transition Properties:   CPU 1231.68 s  wall 224.18 s

 Total ccman2 time:   CPU 282819.60 s  wall 37648.26 s

 
 --------------------------------------------------------------
             Orbital Energies (a.u.) and Symmetries
 --------------------------------------------------------------
 
 Alpha MOs, Restricted
 -- Occupied --                  
-490.03  -65.16  -58.52  -58.52  -58.52  -11.30  -11.26  -11.26
  1 A1    2 A1    3 A1    1 B2    1 B1    4 A1    2 B1    5 A1                 
-11.254 -11.254 -11.251  -9.840  -7.454  -7.445  -7.445  -3.193
  6 A1    3 B1    7 A1    8 A1    9 A1    4 B1    2 B2   10 A1                 
 -3.189  -3.189  -3.179  -3.179  -1.180  -1.076  -1.036  -0.977
  3 B2    5 B1   11 A1    1 A2   12 A1   13 A1    6 B1   14 A1                 
 -0.849  -0.820  -0.714  -0.648  -0.647  -0.608  -0.578  -0.535
  7 B1   15 A1   16 A1    8 B1   17 A1    9 B1   18 A1    4 B2                 
 -0.518  -0.496  -0.440  -0.417  -0.354  -0.335
 10 B1   19 A1    5 B2   11 B1    2 A2    6 B2                                 
 -- Virtual --                   
  0.013   0.020   0.020   0.026   0.029   0.030   0.037   0.040
 20 A1   12 B1   21 A1    7 B2   13 B1   22 A1   23 A1    8 B2                 
  0.043   0.047   0.048   0.054   0.055   0.059   0.063   0.065
  3 A2   14 B1   24 A1    9 B2    4 A2   25 A1   15 B1   26 A1                 
  0.067   0.067   0.069   0.069   0.076   0.082   0.087   0.091
 16 B1   10 B2   27 A1   11 B2   17 B1   28 A1   29 A1   18 B1                 
  0.100   0.101   0.101   0.119   0.123   0.140   0.156   0.165
 12 B2    5 A2   30 A1   19 B1   31 A1   32 A1   13 B2   20 B1                 
  0.174   0.177   0.179   0.196   0.198   0.203   0.207   0.214
 14 B2   33 A1    6 A2   34 A1   21 B1   35 A1   15 B2   36 A1                 
  0.223   0.225   0.229   0.229   0.231   0.241   0.245   0.247
 22 B1   16 B2   37 A1   23 B1    7 A2   38 A1   17 B2   24 B1                 
  0.252   0.254   0.263   0.278   0.289   0.293   0.314   0.337
 39 A1   25 B1   40 A1   41 A1   26 B1   27 B1   42 A1   28 B1                 
  0.342   0.353   0.377   0.413   0.416   0.433   0.442   0.487
 43 A1   18 B2   44 A1   45 A1   29 B1   30 B1   46 A1   47 A1                 
  0.494   0.511   0.512   0.606   0.615   0.619   0.645   0.647
 31 B1   32 B1   48 A1   49 A1   33 B1   19 B2   34 B1   50 A1                 
  0.716   0.729   0.736   0.737   0.741   0.747   0.766   0.774
 51 A1   35 B1   20 B2   36 B1   52 A1   21 B2    8 A2   53 A1                 
  0.787   0.787   0.805   0.824   0.829   0.866   0.888   0.897
  9 A2   37 B1   22 B2   54 A1   10 A2   23 B2   55 A1   56 A1                 
  0.924   0.925   0.935   0.939   0.960   0.985   1.012   1.031
 38 B1   24 B2   57 A1   39 B1   58 A1   59 A1   40 B1   60 A1                 
  1.059   1.069   1.097   1.098   1.112   1.126   1.177   1.203
 41 B1   61 A1   42 B1   62 A1   63 A1   43 B1   44 B1   25 B2                 
  1.203   1.231   1.286   1.293   1.308   1.345   1.374   1.472
 64 A1   11 A2   65 A1   45 B1   12 A2   26 B2   13 A2   66 A1                 
  1.525   1.614   1.725   1.776   1.785   1.817   1.823   1.831
 27 B2   67 A1   46 B1   68 A1   47 B1   69 A1   28 B2   14 A2                 
  1.881   1.905   1.907   1.947   1.990   2.006   2.042   2.102
 29 B2   70 A1   48 B1   71 A1   49 B1   30 B2   15 A2   50 B1                 
  2.147   2.217   2.218   2.219   2.235   2.248   2.272   2.320
 72 A1   51 B1   31 B2   16 A2   52 B1   73 A1   32 B2   74 A1                 
  2.345   2.352   2.366   2.375   2.443   2.594   2.614   2.645
 75 A1   53 B1   17 A2   33 B2   54 B1   34 B2   76 A1   18 A2                 
  2.676   2.742   2.796   2.796   2.849   2.929   2.972   2.991
 55 B1   77 A1   78 A1   56 B1   57 B1   79 A1   80 A1   81 A1                 
  3.009   3.022   3.031   3.039   3.069   3.161   3.186   3.193
 58 B1   82 A1   83 A1   59 B1   35 B2   84 A1   36 B2   60 B1                 
  3.193   3.280   3.286   3.319   3.472   3.530   3.563   3.756
 19 A2   37 B2   20 A2   61 B1   38 B2   85 A1   62 B1   63 B1                 
  3.780   3.899   3.921   4.018   4.139   4.383   4.438   4.501
 86 A1   64 B1   87 A1   88 A1   89 A1   65 B1   90 A1   91 A1                 
  4.515   4.558   4.609   4.637   4.789   4.960   5.114   5.261
 66 B1   21 A2   92 A1   39 B2   67 B1   93 A1   94 A1   68 B1                 
  5.439   5.446   5.759   5.778   6.183   7.393   8.256   8.348
 95 A1   69 B1   96 A1   70 B1   97 A1   98 A1   40 B2   71 B1                 
  8.448  20.615  20.685  20.706  20.824  20.851  21.124  49.625
 99 A1  100 A1  101 A1   72 B1  102 A1   73 B1  103 A1  104 A1                 
 80.185  80.258  80.280  80.379  80.404  80.610 293.938 294.033
105 A1  106 A1   74 B1  107 A1   75 B1  108 A1   41 B2   76 B1                 
294.152 322.027 322.095 322.116 322.200 322.221 322.3881028.598
109 A1  110 A1  111 A1   77 B1  112 A1   78 B1  113 A1  114 A1                 
*******1431.6581431.6781431.7481431.7671431.9068749.8358749.890
115 A1  116 A1   79 B1  117 A1   80 B1  118 A1  119 A1  120 A1                 
*******8749.9638749.9808750.091
 81 B1  121 A1   82 B1  122 A1                                                 
 
 Beta MOs, Restricted
 -- Occupied --                  
-490.03  -65.16  -58.52  -58.52  -58.52  -11.30  -11.26  -11.26
  1 A1    2 A1    3 A1    1 B2    1 B1    4 A1    2 B1    5 A1                 
-11.254 -11.254 -11.251  -9.840  -7.454  -7.445  -7.445  -3.193
  6 A1    3 B1    7 A1    8 A1    9 A1    4 B1    2 B2   10 A1                 
 -3.189  -3.189  -3.179  -3.179  -1.180  -1.076  -1.036  -0.977
  3 B2    5 B1   11 A1    1 A2   12 A1   13 A1    6 B1   14 A1                 
 -0.849  -0.820  -0.714  -0.648  -0.647  -0.608  -0.578  -0.535
  7 B1   15 A1   16 A1    8 B1   17 A1    9 B1   18 A1    4 B2                 
 -0.518  -0.496  -0.440  -0.417  -0.354  -0.335
 10 B1   19 A1    5 B2   11 B1    2 A2    6 B2                                 
 -- Virtual --                   
  0.013   0.020   0.020   0.026   0.029   0.030   0.037   0.040
 20 A1   12 B1   21 A1    7 B2   13 B1   22 A1   23 A1    8 B2                 
  0.043   0.047   0.048   0.054   0.055   0.059   0.063   0.065
  3 A2   14 B1   24 A1    9 B2    4 A2   25 A1   15 B1   26 A1                 
  0.067   0.067   0.069   0.069   0.076   0.082   0.087   0.091
 16 B1   10 B2   27 A1   11 B2   17 B1   28 A1   29 A1   18 B1                 
  0.100   0.101   0.101   0.119   0.123   0.140   0.156   0.165
 12 B2    5 A2   30 A1   19 B1   31 A1   32 A1   13 B2   20 B1                 
  0.174   0.177   0.179   0.196   0.198   0.203   0.207   0.214
 14 B2   33 A1    6 A2   34 A1   21 B1   35 A1   15 B2   36 A1                 
  0.223   0.225   0.229   0.229   0.231   0.241   0.245   0.247
 22 B1   16 B2   37 A1   23 B1    7 A2   38 A1   17 B2   24 B1                 
  0.252   0.254   0.263   0.278   0.289   0.293   0.314   0.337
 39 A1   25 B1   40 A1   41 A1   26 B1   27 B1   42 A1   28 B1                 
  0.342   0.353   0.377   0.413   0.416   0.433   0.442   0.487
 43 A1   18 B2   44 A1   45 A1   29 B1   30 B1   46 A1   47 A1                 
  0.494   0.511   0.512   0.606   0.615   0.619   0.645   0.647
 31 B1   32 B1   48 A1   49 A1   33 B1   19 B2   34 B1   50 A1                 
  0.716   0.729   0.736   0.737   0.741   0.747   0.766   0.774
 51 A1   35 B1   20 B2   36 B1   52 A1   21 B2    8 A2   53 A1                 
  0.787   0.787   0.805   0.824   0.829   0.866   0.888   0.897
  9 A2   37 B1   22 B2   54 A1   10 A2   23 B2   55 A1   56 A1                 
  0.924   0.925   0.935   0.939   0.960   0.985   1.012   1.031
 38 B1   24 B2   57 A1   39 B1   58 A1   59 A1   40 B1   60 A1                 
  1.059   1.069   1.097   1.098   1.112   1.126   1.177   1.203
 41 B1   61 A1   42 B1   62 A1   63 A1   43 B1   44 B1   25 B2                 
  1.203   1.231   1.286   1.293   1.308   1.345   1.374   1.472
 64 A1   11 A2   65 A1   45 B1   12 A2   26 B2   13 A2   66 A1                 
  1.525   1.614   1.725   1.776   1.785   1.817   1.823   1.831
 27 B2   67 A1   46 B1   68 A1   47 B1   69 A1   28 B2   14 A2                 
  1.881   1.905   1.907   1.947   1.990   2.006   2.042   2.102
 29 B2   70 A1   48 B1   71 A1   49 B1   30 B2   15 A2   50 B1                 
  2.147   2.217   2.218   2.219   2.235   2.248   2.272   2.320
 72 A1   51 B1   31 B2   16 A2   52 B1   73 A1   32 B2   74 A1                 
  2.345   2.352   2.366   2.375   2.443   2.594   2.614   2.645
 75 A1   53 B1   17 A2   33 B2   54 B1   34 B2   76 A1   18 A2                 
  2.676   2.742   2.796   2.796   2.849   2.929   2.972   2.991
 55 B1   77 A1   78 A1   56 B1   57 B1   79 A1   80 A1   81 A1                 
  3.009   3.022   3.031   3.039   3.069   3.161   3.186   3.193
 58 B1   82 A1   83 A1   59 B1   35 B2   84 A1   36 B2   60 B1                 
  3.193   3.280   3.286   3.319   3.472   3.530   3.563   3.756
 19 A2   37 B2   20 A2   61 B1   38 B2   85 A1   62 B1   63 B1                 
  3.780   3.899   3.921   4.018   4.139   4.383   4.438   4.501
 86 A1   64 B1   87 A1   88 A1   89 A1   65 B1   90 A1   91 A1                 
  4.515   4.558   4.609   4.637   4.789   4.960   5.114   5.261
 66 B1   21 A2   92 A1   39 B2   67 B1   93 A1   94 A1   68 B1                 
  5.439   5.446   5.759   5.778   6.183   7.393   8.256   8.348
 95 A1   69 B1   96 A1   70 B1   97 A1   98 A1   40 B2   71 B1                 
  8.448  20.615  20.685  20.706  20.824  20.851  21.124  49.625
 99 A1  100 A1  101 A1   72 B1  102 A1   73 B1  103 A1  104 A1                 
 80.185  80.258  80.280  80.379  80.404  80.610 293.938 294.033
105 A1  106 A1   74 B1  107 A1   75 B1  108 A1   41 B2   76 B1                 
294.152 322.027 322.095 322.116 322.200 322.221 322.3881028.598
109 A1  110 A1  111 A1   77 B1  112 A1   78 B1  113 A1  114 A1                 
*******1431.6581431.6781431.7481431.7671431.9068749.8358749.890
115 A1  116 A1   79 B1  117 A1   80 B1  118 A1  119 A1  120 A1                 
*******8749.9638749.9808750.091
 81 B1  121 A1   82 B1  122 A1                                                 
 --------------------------------------------------------------
 
          Ground-State Mulliken Net Atomic Charges

     Atom                 Charge (a.u.)
  ----------------------------------------
      1 H                     0.259552
      2 C                    -0.225772
      3 C                    -0.163465
      4 H                     0.227419
      5 C                    -0.415497
      6 H                     0.187829
      7 C                    -0.163465
      8 H                     0.227419
      9 C                    -0.225772
     10 H                     0.259552
     11 C                     0.385991
     12 Br                   -0.353791
  ----------------------------------------
  Sum of atomic charges =    -0.000000

 -----------------------------------------------------------------
                    Cartesian Multipole Moments
 -----------------------------------------------------------------
    Charge (ESU x 10^10)
                -0.0000
    Dipole Moment (Debye)
         X       0.0000      Y      -0.0000      Z      -2.0243
       Tot       2.0243
    Quadrupole Moments (Debye-Ang)
        XX     -48.3716     XY      -0.0000     YY     -58.7598
        XZ      -0.0000     YZ       0.0000     ZZ     -49.5428
    Octopole Moments (Debye-Ang^2)
       XXX       0.0000    XXY      -0.0000    XYY       0.0000
       YYY      -0.0000    XXZ      11.2082    XYZ      -0.0000
       YYZ      26.3115    XZZ       0.0000    YZZ      -0.0000
       ZZZ      41.1621
    Hexadecapole Moments (Debye-Ang^3)
      XXXX    -283.2336   XXXY       0.0000   XXYY     -72.3334
      XYYY      -0.0000   YYYY     -72.6692   XXXZ      -0.0000
      XXYZ       0.0000   XYYZ       0.0000   YYYZ       0.0000
      XXZZ    -223.8748   XYZZ      -0.0000   YYZZ    -222.8924
      XZZZ       0.0000   YZZZ       0.0000   ZZZZ   -1014.6946
 -----------------------------------------------------------------
Archival summary:
1\1\n-62-29-13\SP\ProcedureUnspecified\BasisUnspecified\r165\malop\FriNov2307:09:332018FriNov2307:09:332018\0\\#,ProcedureUnspecified,BasisUnspecified,\\0,1\Br\C,1,1.884\C,2,1.3922,1,119.37\H,3,1.0802,2,120.072,1,-0,0\C,2,1.3922,1,119.37,3,-180,0\H,5,1.0802,2,120.072,1,-0,0\C,3,1.39311,2,119.031,1,-180,0\H,7,1.08133,3,119.353,2,-180,0\C,5,1.39311,2,119.031,1,180,0\H,9,1.08133,5,119.353,2,180,0\C,7,1.39319,3,120.463,2,-0,0\H,11,1.08081,7,120.124,3,-180,0\\HF=-2802.54028\\@

 Total job time:  37718.13s(wall), 283277.32s(cpu) 
 Fri Nov 23 07:09:33 2018

        *************************************************************
        *                                                           *
        *  Thank you very much for using Q-Chem.  Have a nice day.  *
        *                                                           *
        *************************************************************


