n-62-24-2 10.66.24
Q-Chem Developer Version! Running on 10.66.24.*
                  Welcome to Q-Chem
     A Quantum Leap Into The Future Of Chemistry


 Q-Chem 5.1, Q-Chem, Inc., Pleasanton, CA (2018)

 Yihan Shao,  Zhengting Gan,  E. Epifanovsky,  A. T. B. Gilbert,  M. Wormit,  
 J. Kussmann,  A. W. Lange,  A. Behn,  Jia Deng,  Xintian Feng,  D. Ghosh,  
 M. Goldey,  P. R. Horn,  L. D. Jacobson,  I. Kaliman,  T. Kus,  A. Landau,  
 Jie Liu,  E. I. Proynov,  R. M. Richard,  R. P. Steele,  E. J. Sundstrom,  
 H. L. Woodcock III,  P. M. Zimmerman,  D. Zuev,  B. Albrecht,  E. Alguire,  
 S. A. Baeppler,  D. Barton,  Z. Benda,  Y. A. Bernard,  E. J. Berquist,  
 K. B. Bravaya,  H. Burton,  D. Casanova,  Chun-Min Chang,  Yunqing Chen,  
 A. Chien,  K. D. Closser,  M. P. Coons,  S. Coriani,  S. Dasgupta,  
 A. L. Dempwolff,  M. Diedenhofen,  Hainam Do,  R. G. Edgar,  Po-Tung Fang,  
 S. Faraji,  S. Fatehi,  Qingguo Feng,  K. D. Fenk,  J. Fosso-Tande,  
 Qinghui Ge,  A. Ghysels,  G. Gidofalvi,  J. Gomes,  J. Gonthier,  A. Gunina,  
 M. W. D. Hanson-Heine,  P. H. P. Harbach,  A. W. Hauser,  J. E. Herr,  
 E. G. Hohenstein,  Z. C. Holden,  Kerwin Hui,  T.-C. Jagau,  Hyunjun Ji,  
 B. Kaduk,  K. Khistyaev,  Jaehoon Kim,  P. Klunzinger,  K. Koh,  
 D. Kosenkov,  L. Koulias,  T. Kowalczyk,  C. M. Krauter,  A. Kunitsa,  
 Ka Un Lao,  A. Laurent,  K. V. Lawler,  Joonho Lee,  D. Lefrancois,  
 S. Lehtola,  D. S. Levine,  Yi-Pei Li,  You-Sheng Lin,  Fenglai Liu,  
 E. Livshits,  A. Luenser,  P. Manohar,  E. Mansoor,  S. F. Manzer,  
 Shan-Ping Mao,  Yuezhi Mao,  N. Mardirossian,  A. V. Marenich,  
 T. Markovich,  L. A. Martinez-Martinez,  S. A. Maurer,  N. J. Mayhall,  
 S. C. McKenzie,  J.-M. Mewes,  A. F. Morrison,  J. W. Mullinax,  K. Nanda,  
 T. S. Nguyen-Beck,  R. Olivares-Amaya,  J. A. Parkhill,  T. M. Perrine,  
 F. Plasser,  P. Pokhilko,  S. Prager,  A. Prociuk,  E. Ramos,  D. R. Rehn,  
 F. Rob,  M. Schneider,  N. Sergueev,  S. M. Sharada,  S. Sharma,  
 D. W. Small,  T. Stauch,  T. Stein,  Yu-Chuan Su,  A. J. W. Thom,  
 A. Tkatchenko,  T. Tsuchimochi,  N. M. Tubman,  L. Vogt,  M. L. Vidal,  
 O. Vydrov,  M. A. Watson,  J. Wenzel,  M. de Wergifosse,  T. A. Wesolowski,  
 A. White,  J. Witte,  A. Yamada,  Jun Yang,  K. Yao,  S. Yeganeh,  
 S. R. Yost,  Zhi-Qiang You,  A. Zech,  Igor Ying Zhang,  Xing Zhang,  
 Yan Zhao,  Ying Zhu,  B. R. Brooks,  G. K. L. Chan,  C. J. Cramer,  
 M. S. Gordon,  W. J. Hehre,  A. Klamt,  M. W. Schmidt,  C. D. Sherrill,  
 D. G. Truhlar,  A. Aspuru-Guzik,  R. Baer,  A. T. Bell,  N. A. Besley,  
 Jeng-Da Chai,  R. A. DiStasio Jr.,  A. Dreuw,  B. D. Dunietz,  
 T. R. Furlani,  Chao-Ping Hsu,  Yousung Jung,  Jing Kong,  D. S. Lambrecht,  
 WanZhen Liang,  C. Ochsenfeld,  V. A. Rassolov,  L. V. Slipchenko,  
 J. E. Subotnik,  T. Van Voorhis,  J. M. Herbert,  A. I. Krylov,  
 P. M. W. Gill,  M. Head-Gordon

 Contributors to earlier versions of Q-Chem not listed above: 
 R. D. Adamson,  B. Austin,  J. Baker,  G. J. O. Beran,  K. Brandhorst,  
 S. T. Brown,  E. F. C. Byrd,  A. K. Chakraborty,  C.-L. Cheng,  
 Siu Hung Chien,  D. M. Chipman,  D. L. Crittenden,  H. Dachsel,  
 R. J. Doerksen,  A. D. Dutoi,  L. Fusti-Molnar,  W. A. Goddard III,  
 A. Golubeva-Zadorozhnaya,  S. R. Gwaltney,  G. Hawkins,  A. Heyden,  
 S. Hirata,  G. Kedziora,  F. J. Keil,  C. Kelley,  Jihan Kim,  R. A. King,  
 R. Z. Khaliullin,  P. P. Korambath,  W. Kurlancheek,  A. M. Lee,  M. S. Lee,  
 S. V. Levchenko,  Ching Yeh Lin,  D. Liotard,  R. C. Lochan,  I. Lotan,  
 P. E. Maslen,  N. Nair,  D. P. O'Neill,  D. Neuhauser,  E. Neuscamman,  
 C. M. Oana,  R. Olson,  B. Peters,  R. Peverati,  P. A. Pieniazek,  
 Y. M. Rhee,  J. Ritchie,  M. A. Rohrdanz,  E. Rosta,  N. J. Russ,  
 H. F. Schaefer III,  N. E. Schultz,  N. Shenvi,  A. C. Simmonett,  A. Sodt,  
 D. Stuck,  K. S. Thanthiriwatte,  V. Vanovschi,  Tao Wang,  A. Warshel,  
 C. F. Williams,  Q. Wu,  X. Xu,  W. Zhang

 Please cite Q-Chem as follows:
 Y. Shao et al., Mol. Phys. 113, 184-215 (2015)
 DOI: 10.1080/00268976.2014.952696

 Q-Chem 5.1.0 for Intel X86 EM64T Linux

 Parts of Q-Chem use Armadillo 8.300.2 (Tropical Shenanigans).
 http://arma.sourceforge.net/

 Q-Chem begins on Mon Oct 22 12:12:32 2018  

Host: 
0

     Scratch files written to /work1/malop/qc_7362263.hnode2//

Checking the input file for inconsistencies... 	...done.

--------------------------------------------------------------
User input:
--------------------------------------------------------------
$comment
Optimized Cl-Bz, XAS
basis = 6-311(2+,+)G** uncontracted on C 
$end

$molecule
0 1
H      -2.1434404908     0.0000000000    -0.2235906397
C      -1.2132672529    -0.0000000000    -0.7727863601
C      -1.2050294832    -0.0000000000    -2.1658702173
H      -2.1443854307    -0.0000000000    -2.7014917948
C       0.0000000000    -0.0000000000    -2.8650776091
H       0.0000000000    -0.0000000000    -3.9458877158
C       1.2050294832    -0.0000000000    -2.1658702173
H       2.1443854307    -0.0000000000    -2.7014917948
C       1.2132672529    -0.0000000000    -0.7727863601
H       2.1434404908    -0.0000000000    -0.2235906397
C      -0.0000000000    -0.0000000000    -0.0899907575
Br     -0.0000000000     0.0000000000     1.7940097632
$end

$rem
   JOB_TYPE  =  SP
   BASIS  =  general
   METHOD  =  EOM-CCSD
   CVS_EE_STATES = [10,0,10,10]
   eom_preconv_singles = true
   n_frozen_core = 7
   cc_trans_prop = true
   use_libqints = 1   !use new int library (will be def in trunk)
   cc_memory = 100000
   EOM_DAVIDSON_MAX_ITER 200
   EOM_DAVIDSON_MAXVECTORS = 1000
   eom_davidson_convergence = 4
   eom_shift = 10000
$end

$basis
H    0
S    3    1.000000
   3.38650000E+01    2.54938000E-02
   5.09479000E+00    1.90373000E-01
   1.15879000E+00    8.52161000E-01
S    1    1.000000
   3.25840000E-01    1.00000000E+00
S    1    1.000000
   1.02741000E-01    1.00000000E+00
S    1    1.000000
   3.60000000E-02    1.00000000E+00
P    1    1.000000
   7.50000000E-01    1.00000000E+00
****
C    0
S    1    1.000000
   4.56324000E+03    1.96665000E-03
S    1    1.000000
   6.82024000E+02    1.52306000E-02
S    1    1.000000
   1.54973000E+02    7.61269000E-02
S    1    1.000000
   4.44553000E+01    2.60801000E-01
S    1    1.000000
   1.30290000E+01    6.16462000E-01
S    1    1.000000
   1.82773000E+00    2.21006000E-01
SP   3    1.000000
   2.09642000E+01    1.14660000E-01   4.02487000E-02
   4.80331000E+00    9.19999000E-01   2.37594000E-01
   1.45933000E+00   -3.03068000E-03   8.15854000E-01
SP   1    1.000000
   4.83456000E-01    1.00000000E+00   1.00000000E+00
SP   1    1.000000
   1.45585000E-01    1.00000000E+00   1.00000000E+00
SP   1    1.000000
   4.38000000E-02    1.00000000E+00   1.00000000E+00
SP   1    1.000000
   1.31927711E-02    1.00000000E+00   1.00000000E+00
D    1    1.000000
   6.26000000E-01    1.00000000E+00
****
Br   0
S    6    1.000000
   4.39700000E+05    8.13000000E-04
   6.60300000E+04    6.28500000E-03
   1.51400000E+04    3.19200000E-02
   4.31700000E+03    1.28800000E-01
   1.41400000E+03    3.94600000E-01
   5.23900000E+02    5.41300000E-01
S    3    1.000000
   5.23900000E+02    1.83100000E-01
   2.07700000E+02    6.17600000E-01
   8.65400000E+01    2.53800000E-01
S    1    1.000000
   3.05200000E+01    1.00000000E+00
S    1    1.000000
   1.29800000E+01    1.00000000E+00
S    1    1.000000
   4.41200000E+00    1.00000000E+00
S    1    1.000000
   1.86200000E+00    1.00000000E+00
S    1    1.000000
   3.93200000E-01    1.00000000E+00
S    1    1.000000
   1.40000000E-01    1.00000000E+00
P    3    1.000000
   2.95700000E+03    2.22600000E-02
   7.00300000E+02    1.80200000E-01
   2.24600000E+02    8.62400000E-01
P    3    1.000000
   8.25900000E+01    3.44000000E-01
   3.31900000E+01    5.07100000E-01
   1.42000000E+01    2.59000000E-01
P    3    1.000000
   1.42000000E+01    7.96500000E-02
   7.43800000E+00    3.73400000E-01
   3.52600000E+00    6.04900000E-01
P    1    1.000000
   1.59500000E+00    1.00000000E+00
P    1    1.000000
   8.46200000E-01    1.00000000E+00
P    1    1.000000
   3.18600000E-01    1.00000000E+00
P    1    1.000000
   1.09600000E-01    1.00000000E+00
D    4    1.000000
   1.34800000E+02    1.83100000E-02
   3.63900000E+01    1.35000000E-01
   1.21600000E+01    4.26100000E-01
   4.34100000E+00    6.04300000E-01
D    1    1.000000
   1.53500000E+00    1.00000000E+00
SP   1    1.000000
   3.90000000E-02    1.00000000E+00   1.00000000E+00
SP   1    1.000000
   1.17469880E-02    1.00000000E+00   1.00000000E+00
D    1    1.000000
   4.15000000E-01    1.00000000E+00
****
Gh   0
S   1   1.00
        0.0112533427        1.0000000000
S   1   1.00
        0.0058583805        1.0000000000
S   1   1.00
        0.0033459739        1.0000000000
S   1   1.00
        0.0020484225        1.0000000000
S   1   1.00
        0.0013236424        1.0000000000
P   1   1.00
        0.0192542060        1.0000000000
P   1   1.00
        0.0099882106        1.0000000000
P   1   1.00
        0.0056893607        1.0000000000
P   1   1.00
        0.0034756797        1.0000000000
P   1   1.00
        0.0022420590        1.0000000000
D   1   1.00
        0.0274456919        1.0000000000
D   1   1.00
        0.0142043987        1.0000000000
D   1   1.00
        0.0080765930        1.0000000000
D   1   1.00
        0.0049271863        1.0000000000
D   1   1.00
        0.0031748110        1.0000000000
****
$end

--------------------------------------------------------------
 ----------------------------------------------------------------
             Standard Nuclear Orientation (Angstroms)
    I     Atom           X                Y                Z
 ----------------------------------------------------------------
    1      H      -2.1434404908     0.0000000000    -0.2235906397
    2      C      -1.2132672529     0.0000000000    -0.7727863601
    3      C      -1.2050294832     0.0000000000    -2.1658702173
    4      H      -2.1443854307     0.0000000000    -2.7014917948
    5      C       0.0000000000     0.0000000000    -2.8650776091
    6      H       0.0000000000     0.0000000000    -3.9458877158
    7      C       1.2050294832    -0.0000000000    -2.1658702173
    8      H       2.1443854307    -0.0000000000    -2.7014917948
    9      C       1.2132672529    -0.0000000000    -0.7727863601
   10      H       2.1434404908    -0.0000000000    -0.2235906397
   11      C      -0.0000000000     0.0000000000    -0.0899907575
   12      Br     -0.0000000000    -0.0000000000     1.7940097632
 ----------------------------------------------------------------
 Molecular Point Group                 C2v   NOp =  4
 Largest Abelian Subgroup              C2v   NOp =  4
 Nuclear Repulsion Energy =   432.5066877038 hartrees
 There are       38 alpha and       38 beta electrons

 Q-Chem warning in module forms1/BasisType.C, line 1685:

 Setting pure/cartesian flag to 2111 for general basis


 Requested basis set is non-standard
 There are 117 shells and 273 basis functions
MEM_TOTAL is adjusted to CC_MEMORY + MEM_STATIC!
 Total memory of 100192MB is distributed as follows: 
   QALLOC including MEM_STATIC uses 192MB
   MEM_STATIC is set to 192MB
   CCMAN JOB total memory use is  100000MB
 Warning: actual memory use might exceed 100192MB

 Total QAlloc Memory Limit    192 MB
 Mega-Array Size       188 MB
 MEM_STATIC part       192 MB

                       Distance Matrix (Angstroms)
             H (  1)   C (  2)   C (  3)   H (  4)   C (  5)   H (  6)
   C (  2)  1.080203
   C (  3)  2.157096  1.393108
   H (  4)  2.477901  2.141702  1.081333
   C (  5)  3.401733  2.418615  1.393193  2.150616
   H (  6)  4.295327  3.397144  2.149548  2.479296  1.080810
   C (  7)  3.871008  2.790850  2.410059  3.391972  1.393193  2.149548
   H (  8)  4.952317  3.872175  3.391972  4.288771  2.150616  2.479296
   C (  9)  3.401338  2.426535  2.790850  3.872175  2.418615  3.397144
   H ( 10)  4.286881  3.401338  3.871008  4.952317  3.401733  4.295327
   C ( 11)  2.147600  1.392202  2.400286  3.379101  2.775087  3.855897
   Br( 12)  2.943645  2.839095  4.139172  4.980755  4.659087  5.739897
             C (  7)   H (  8)   C (  9)   H ( 10)   C ( 11)
   H (  8)  1.081333
   C (  9)  1.393108  2.141702
   H ( 10)  2.157096  2.477901  1.080203
   C ( 11)  2.400286  3.379101  1.392202  2.147600
   Br( 12)  4.139172  4.980755  2.839095  2.943645  1.884001
 
 A cutoff of  1.0D-14 yielded   5718 shell pairs
 There are     34880 function pairs (     37255 Cartesian)
 
 -------------------------------------------------------
 OpenMP Integral Computing Module                       
 Release: version 1.0, May 2013, Q-Chem Inc. Pittsburgh 
 -------------------------------------------------------
 Integral Job Info:
 Integral job number is                      11
 Integral operator is                         1
 short-range coefficients                     0
 long-range coefficients              100000000
 Omega coefficients                           0
 if combine SR and LR in K                    0
 Integral screening is                        0
 Integral computing path is                   2
 max size of driver memory is            800000
 size of driver memory is                593474
 size of scratch memory is             29623520
 max col of scratch BK array               1296
 max len of scratch array in speh3          155
 max len of scratch index in speh4           18
 max int batch size is                      520
 min int batch size is                       52
 fixed nKL is                                45
 max L of basis functions is                  2
 order of int derivative is                   0
 number of shells is                        117
 number of basis is                         282
 number of cartesian basis is               282
 number of contracted shell pairs          5718
 number of primitive shell pairs           8629
 maxK2 (contraction) of shell pair           36
 max number of K2 of shell pair               1
 max number of CS2 of shell pair           1561
 max number of PS2 of shell pair           1561
 mem total for path MDJ                  548620
 -------------------------------------------------------
 Smallest overlap matrix eigenvalue = 9.84E-09
 Linear dependence detected in AO basis
 Number of orthogonalized atomic orbitals = 266
 Maximum deviation from orthogonality = 8.560E-11

 Scale SEOQF with 1.000000e-01/1.000000e-01/1.000000e-01

 Standard Electronic Orientation quadrupole field applied
 Nucleus-field energy     =    -0.0000000255 hartrees
 Guess MOs from core Hamiltonian diagonalization

 -----------------------------------------------------------------------
  General SCF calculation program by
  Eric Jon Sundstrom, Paul Horn, Yuezhi Mao, Dmitri Zuev, Alec White,
  David Stuck, Shaama M.S., Shane Yost, Joonho Lee, David Small,
  Daniel Levine, Susi Lehtola, Hugh Burton, Evgeny Epifanovsky
 -----------------------------------------------------------------------
 Hartree-Fock
 A restricted SCF calculation will be
 performed using DIIS
 SCF converges when DIIS error is below 1.0e-08
 ---------------------------------------
  Cycle       Energy         DIIS error
 ---------------------------------------
    1   -2383.9869314806      5.54e-01  
    2   -2189.8943844965      1.75e-01  
    3   -2232.7645986604      1.68e-01  
    4   -2744.6587078984      7.21e-02  
    5   -2754.5915806908      4.90e-02  
    6   -2780.8085580098      4.43e-02  
    7   -2798.4380702137      1.73e-02  
    8   -2802.0517031596      7.65e-03  
    9   -2802.5009432869      2.18e-03  
   10   -2802.5339509472      6.89e-04  
   11   -2802.5387879835      2.68e-04  
   12   -2802.5400377015      8.78e-05  
   13   -2802.5401761100      3.99e-05  
   14   -2802.5402470095      2.35e-05  
   15   -2802.5402732469      7.56e-06  
   16   -2802.5402759193      2.98e-06  
   17   -2802.5402761939      6.55e-07  
   18   -2802.5402762019      1.60e-07  
   19   -2802.5402762024      4.27e-08  
   20   -2802.5402762024      9.43e-09  Convergence criterion met
 ---------------------------------------
 SCF time:   CPU 436.56s  wall 44.00s 
 SCF   energy in the final basis set =    -2802.5402762024


 ------------------------------------------------------------------------------

   CCMAN2: suite of methods based on coupled cluster
           and equation of motion theories.

   Components:
   * libvmm-1.3-trunk
     by Evgeny Epifanovsky, Ilya Kaliman.
   * libtensor-2.5-trunk
     by Evgeny Epifanovsky, Michael Wormit, Dmitry Zuev, Sam Manzer, 
        Ilya Kaliman.
   * libcc-2.5-trunk
     by Evgeny Epifanovsky, Arik Landau, Tomasz Kus, Kirill Khistyaev, 
        Dmitry Zuev, Prashant Manohar, Xintian Feng, Anna Krylov, 
        Matthew Goldey, Alec White, Thomas Jagau, Kaushik Nanda, 
        Anastasia Gunina, Alexander Kunitsa, Joonho Lee.

   CCMAN original authors:
   Anna I. Krylov, C. David Sherrill, Steven R. Gwaltney,
   Edward F. C. Byrd (2000)
   Sergey V. Levchenko, Lyudmila V. Slipchenko, Tao Wang,
   Ana-Maria C. Cristian (2003)
   Piotr A. Pieniazek, C. Melania Oana, Evgeny Epifanovsky (2007)
   Prashant Manohar (2009)

 ------------------------------------------------------------------------------


 Calculation will run on 10 cores with 100000MB of RAM.

 
 Alpha MOs, Restricted
 -- Occupied --                  
-490.03  -65.16  -58.52  -58.52  -58.52  -11.30  -11.26  -11.26
  1 A1    2 A1    3 A1    1 B2    1 B1    4 A1    2 B1    5 A1                 
-11.254 -11.254 -11.251  -9.840  -7.454  -7.445  -7.445  -3.193
  6 A1    3 B1    7 A1    8 A1    9 A1    4 B1    2 B2   10 A1                 
 -3.189  -3.189  -3.179  -3.179  -1.180  -1.076  -1.036  -0.977
  3 B2    5 B1   11 A1    1 A2   12 A1   13 A1    6 B1   14 A1                 
 -0.849  -0.820  -0.714  -0.648  -0.647  -0.608  -0.578  -0.535
  7 B1   15 A1   16 A1    8 B1   17 A1    9 B1   18 A1    4 B2                 
 -0.518  -0.496  -0.440  -0.417  -0.354  -0.335
 10 B1   19 A1    5 B2   11 B1    2 A2    6 B2                                 
 -- Virtual --                   
  0.013   0.020   0.020   0.026   0.029   0.030   0.037   0.040
 20 A1   12 B1   21 A1    7 B2   13 B1   22 A1   23 A1    8 B2                 
  0.043   0.047   0.048   0.054   0.055   0.059   0.063   0.065
  3 A2   14 B1   24 A1    9 B2    4 A2   25 A1   15 B1   26 A1                 
  0.067   0.067   0.069   0.069   0.076   0.082   0.087   0.091
 16 B1   10 B2   27 A1   11 B2   17 B1   28 A1   29 A1   18 B1                 
  0.100   0.101   0.101   0.119   0.123   0.140   0.156   0.165
 12 B2    5 A2   30 A1   19 B1   31 A1   32 A1   13 B2   20 B1                 
  0.174   0.177   0.179   0.196   0.198   0.203   0.207   0.214
 14 B2   33 A1    6 A2   34 A1   21 B1   35 A1   15 B2   36 A1                 
  0.223   0.225   0.229   0.229   0.231   0.241   0.245   0.247
 22 B1   16 B2   37 A1   23 B1    7 A2   38 A1   17 B2   24 B1                 
  0.252   0.254   0.263   0.278   0.289   0.293   0.314   0.337
 39 A1   25 B1   40 A1   41 A1   26 B1   27 B1   42 A1   28 B1                 
  0.342   0.353   0.377   0.413   0.416   0.433   0.442   0.487
 43 A1   18 B2   44 A1   45 A1   29 B1   30 B1   46 A1   47 A1                 
  0.494   0.511   0.512   0.606   0.615   0.619   0.645   0.647
 31 B1   32 B1   48 A1   49 A1   33 B1   19 B2   34 B1   50 A1                 
  0.716   0.729   0.736   0.737   0.741   0.747   0.766   0.774
 51 A1   35 B1   20 B2   36 B1   52 A1   21 B2    8 A2   53 A1                 
  0.787   0.787   0.805   0.824   0.829   0.866   0.888   0.897
  9 A2   37 B1   22 B2   54 A1   10 A2   23 B2   55 A1   56 A1                 
  0.924   0.925   0.935   0.939   0.960   0.985   1.012   1.031
 38 B1   24 B2   57 A1   39 B1   58 A1   59 A1   40 B1   60 A1                 
  1.059   1.069   1.097   1.098   1.112   1.126   1.177   1.203
 41 B1   61 A1   42 B1   62 A1   63 A1   43 B1   44 B1   25 B2                 
  1.203   1.231   1.286   1.293   1.308   1.345   1.374   1.472
 64 A1   11 A2   65 A1   45 B1   12 A2   26 B2   13 A2   66 A1                 
  1.525   1.614   1.725   1.776   1.785   1.817   1.823   1.831
 27 B2   67 A1   46 B1   68 A1   47 B1   69 A1   28 B2   14 A2                 
  1.881   1.905   1.907   1.947   1.990   2.006   2.042   2.102
 29 B2   70 A1   48 B1   71 A1   49 B1   30 B2   15 A2   50 B1                 
  2.147   2.217   2.218   2.219   2.235   2.248   2.272   2.320
 72 A1   51 B1   31 B2   16 A2   52 B1   73 A1   32 B2   74 A1                 
  2.345   2.352   2.366   2.375   2.443   2.594   2.614   2.645
 75 A1   53 B1   17 A2   33 B2   54 B1   34 B2   76 A1   18 A2                 
  2.676   2.742   2.796   2.796   2.849   2.929   2.972   2.991
 55 B1   77 A1   78 A1   56 B1   57 B1   79 A1   80 A1   81 A1                 
  3.009   3.022   3.031   3.039   3.069   3.161   3.186   3.193
 58 B1   82 A1   83 A1   59 B1   35 B2   84 A1   36 B2   60 B1                 
  3.193   3.280   3.286   3.319   3.472   3.530   3.563   3.756
 19 A2   37 B2   20 A2   61 B1   38 B2   85 A1   62 B1   63 B1                 
  3.780   3.899   3.921   4.018   4.139   4.383   4.438   4.501
 86 A1   64 B1   87 A1   88 A1   89 A1   65 B1   90 A1   91 A1                 
  4.515   4.558   4.609   4.637   4.789   4.960   5.114   5.261
 66 B1   21 A2   92 A1   39 B2   67 B1   93 A1   94 A1   68 B1                 
  5.439   5.446   5.759   5.778   6.183   7.393   8.256   8.348
 95 A1   69 B1   96 A1   70 B1   97 A1   98 A1   40 B2   71 B1                 
  8.448  20.615  20.685  20.706  20.824  20.851  21.124  49.625
 99 A1  100 A1  101 A1   72 B1  102 A1   73 B1  103 A1  104 A1                 
 80.185  80.258  80.280  80.379  80.404  80.610 293.938 294.033
105 A1  106 A1   74 B1  107 A1   75 B1  108 A1   41 B2   76 B1                 
294.152 322.027 322.095 322.116 322.200 322.221 322.3881028.598
109 A1  110 A1  111 A1   77 B1  112 A1   78 B1  113 A1  114 A1                 
*******1431.6581431.6781431.7481431.7671431.9068749.8358749.890
115 A1  116 A1   79 B1  117 A1   80 B1  118 A1  119 A1  120 A1                 
*******8749.9638749.9808750.091
 81 B1  121 A1   82 B1  122 A1                                                 
 
 Beta MOs, Restricted
 -- Occupied --                  
-490.03  -65.16  -58.52  -58.52  -58.52  -11.30  -11.26  -11.26
  1 A1    2 A1    3 A1    1 B2    1 B1    4 A1    2 B1    5 A1                 
-11.254 -11.254 -11.251  -9.840  -7.454  -7.445  -7.445  -3.193
  6 A1    3 B1    7 A1    8 A1    9 A1    4 B1    2 B2   10 A1                 
 -3.189  -3.189  -3.179  -3.179  -1.180  -1.076  -1.036  -0.977
  3 B2    5 B1   11 A1    1 A2   12 A1   13 A1    6 B1   14 A1                 
 -0.849  -0.820  -0.714  -0.648  -0.647  -0.608  -0.578  -0.535
  7 B1   15 A1   16 A1    8 B1   17 A1    9 B1   18 A1    4 B2                 
 -0.518  -0.496  -0.440  -0.417  -0.354  -0.335
 10 B1   19 A1    5 B2   11 B1    2 A2    6 B2                                 
 -- Virtual --                   
  0.013   0.020   0.020   0.026   0.029   0.030   0.037   0.040
 20 A1   12 B1   21 A1    7 B2   13 B1   22 A1   23 A1    8 B2                 
  0.043   0.047   0.048   0.054   0.055   0.059   0.063   0.065
  3 A2   14 B1   24 A1    9 B2    4 A2   25 A1   15 B1   26 A1                 
  0.067   0.067   0.069   0.069   0.076   0.082   0.087   0.091
 16 B1   10 B2   27 A1   11 B2   17 B1   28 A1   29 A1   18 B1                 
  0.100   0.101   0.101   0.119   0.123   0.140   0.156   0.165
 12 B2    5 A2   30 A1   19 B1   31 A1   32 A1   13 B2   20 B1                 
  0.174   0.177   0.179   0.196   0.198   0.203   0.207   0.214
 14 B2   33 A1    6 A2   34 A1   21 B1   35 A1   15 B2   36 A1                 
  0.223   0.225   0.229   0.229   0.231   0.241   0.245   0.247
 22 B1   16 B2   37 A1   23 B1    7 A2   38 A1   17 B2   24 B1                 
  0.252   0.254   0.263   0.278   0.289   0.293   0.314   0.337
 39 A1   25 B1   40 A1   41 A1   26 B1   27 B1   42 A1   28 B1                 
  0.342   0.353   0.377   0.413   0.416   0.433   0.442   0.487
 43 A1   18 B2   44 A1   45 A1   29 B1   30 B1   46 A1   47 A1                 
  0.494   0.511   0.512   0.606   0.615   0.619   0.645   0.647
 31 B1   32 B1   48 A1   49 A1   33 B1   19 B2   34 B1   50 A1                 
  0.716   0.729   0.736   0.737   0.741   0.747   0.766   0.774
 51 A1   35 B1   20 B2   36 B1   52 A1   21 B2    8 A2   53 A1                 
  0.787   0.787   0.805   0.824   0.829   0.866   0.888   0.897
  9 A2   37 B1   22 B2   54 A1   10 A2   23 B2   55 A1   56 A1                 
  0.924   0.925   0.935   0.939   0.960   0.985   1.012   1.031
 38 B1   24 B2   57 A1   39 B1   58 A1   59 A1   40 B1   60 A1                 
  1.059   1.069   1.097   1.098   1.112   1.126   1.177   1.203
 41 B1   61 A1   42 B1   62 A1   63 A1   43 B1   44 B1   25 B2                 
  1.203   1.231   1.286   1.293   1.308   1.345   1.374   1.472
 64 A1   11 A2   65 A1   45 B1   12 A2   26 B2   13 A2   66 A1                 
  1.525   1.614   1.725   1.776   1.785   1.817   1.823   1.831
 27 B2   67 A1   46 B1   68 A1   47 B1   69 A1   28 B2   14 A2                 
  1.881   1.905   1.907   1.947   1.990   2.006   2.042   2.102
 29 B2   70 A1   48 B1   71 A1   49 B1   30 B2   15 A2   50 B1                 
  2.147   2.217   2.218   2.219   2.235   2.248   2.272   2.320
 72 A1   51 B1   31 B2   16 A2   52 B1   73 A1   32 B2   74 A1                 
  2.345   2.352   2.366   2.375   2.443   2.594   2.614   2.645
 75 A1   53 B1   17 A2   33 B2   54 B1   34 B2   76 A1   18 A2                 
  2.676   2.742   2.796   2.796   2.849   2.929   2.972   2.991
 55 B1   77 A1   78 A1   56 B1   57 B1   79 A1   80 A1   81 A1                 
  3.009   3.022   3.031   3.039   3.069   3.161   3.186   3.193
 58 B1   82 A1   83 A1   59 B1   35 B2   84 A1   36 B2   60 B1                 
  3.193   3.280   3.286   3.319   3.472   3.530   3.563   3.756
 19 A2   37 B2   20 A2   61 B1   38 B2   85 A1   62 B1   63 B1                 
  3.780   3.899   3.921   4.018   4.139   4.383   4.438   4.501
 86 A1   64 B1   87 A1   88 A1   89 A1   65 B1   90 A1   91 A1                 
  4.515   4.558   4.609   4.637   4.789   4.960   5.114   5.261
 66 B1   21 A2   92 A1   39 B2   67 B1   93 A1   94 A1   68 B1                 
  5.439   5.446   5.759   5.778   6.183   7.393   8.256   8.348
 95 A1   69 B1   96 A1   70 B1   97 A1   98 A1   40 B2   71 B1                 
  8.448  20.615  20.685  20.706  20.824  20.851  21.124  49.625
 99 A1  100 A1  101 A1   72 B1  102 A1   73 B1  103 A1  104 A1                 
 80.185  80.258  80.280  80.379  80.404  80.610 293.938 294.033
105 A1  106 A1   74 B1  107 A1   75 B1  108 A1   41 B2   76 B1                 
294.152 322.027 322.095 322.116 322.200 322.221 322.3881028.598
109 A1  110 A1  111 A1   77 B1  112 A1   78 B1  113 A1  114 A1                 
*******1431.6581431.6781431.7481431.7671431.9068749.8358749.890
115 A1  116 A1   79 B1  117 A1   80 B1  118 A1  119 A1  120 A1                 
*******8749.9638749.9808750.091
 81 B1  121 A1   82 B1  122 A1                                                 

 Occupation and symmetry of molecular orbitals

 Point group: C2v (4 irreducible representations).

                           A1   A2   B1   B2    All 
 ----------------------------------------------------
 All molecular orbitals:
  - Alpha                  122  21   82   41    266 
  - Beta                   122  21   82   41    266 
 ----------------------------------------------------
 Alpha orbitals:
  - Frozen occupied        4    0    2    1     7   
  - Active occupied        15   2    9    5     31  
  - Active virtual         103  19   71   35    228 
  - Frozen virtual         0    0    0    0     0   
 ----------------------------------------------------
 Beta orbitals:
  - Frozen occupied        4    0    2    1     7   
  - Active occupied        15   2    9    5     31  
  - Active virtual         103  19   71   35    228 
  - Frozen virtual         0    0    0    0     0   
 ----------------------------------------------------

 Import integrals:   CPU 0.00 s  wall 0.00 s

 Import integrals:   CPU 1573.19 s  wall 179.05 s

 MP2 amplitudes:   CPU 6.08 s  wall 4.83 s

           CCSD T amplitudes will be solved using DIIS.

           Start     Size      MaxIter   EConv     TConv     
           3         7         100       1.00e-06  1.00e-04  
 ------------------------------------------------------------------------------
           Energy (a.u.)   Ediff      Tdiff       Comment
 ------------------------------------------------------------------------------
         -2803.87938333                           
     1   -2803.83955963   3.98e-02   1.02e+00     
     2   -2803.87990366   4.03e-02   1.43e-01     
     3   -2803.87786984   2.03e-03   4.92e-02     
     4   -2803.88120395   3.33e-03   1.44e-02     Switched to DIIS steps.
     5   -2803.88218430   9.80e-04   1.19e-02     
     6   -2803.88218901   4.71e-06   2.20e-03     
     7   -2803.88218150   7.51e-06   1.10e-03     
     8   -2803.88218326   1.76e-06   2.14e-04     
     9   -2803.88218278   4.76e-07   8.04e-05     
 ------------------------------------------------------------------------------
         -2803.88218278                           CCSD T converged.

 SCF energy                 = -2802.54027620
 MP2 energy                 = -2803.87938333
 CCSD correlation energy     =    -1.34190658
 CCSD total energy           = -2803.88218278

 CCSD  T1^2 = 0.0086  T2^2 = 0.4137  Leading amplitudes:

 Amplitude    Orbitals with energies
  0.0181       2 (A2) A                  ->    8 (A2) A                   
              -0.3538                          0.7661                     
  0.0181       2 (A2) B                  ->    8 (A2) B                   
              -0.3538                          0.7661                     
  0.0133       4 (B2) A                  ->    21 (B2) A                  
              -0.5346                          0.7475                     
  0.0133       4 (B2) B                  ->    21 (B2) B                  
              -0.5346                          0.7475                     

 Amplitude    Orbitals with energies
 -0.0687       2 (A2) A      2 (A2) B    ->    5 (A2) A      5 (A2) B     
              -0.3538       -0.3538            0.1009        0.1009       
  0.0687       2 (A2) A      2 (A2) B    ->    5 (A2) B      5 (A2) A     
              -0.3538       -0.3538            0.1009        0.1009       
  0.0687       2 (A2) B      2 (A2) A    ->    5 (A2) A      5 (A2) B     
              -0.3538       -0.3538            0.1009        0.1009       
 -0.0687       2 (A2) B      2 (A2) A    ->    5 (A2) B      5 (A2) A     
              -0.3538       -0.3538            0.1009        0.1009       

 Computing CCSD intermediates for later calculations
 Finished.

           CCSD Lambda amplitudes will be solved using DIIS.
           Start     Size      MaxIter   EConv     LConv     
           3         7         100       1.00e-06  1.00e-04  
 ------------------------------------------------------------------------------
            Enorm      Ldiff       Comment
 ------------------------------------------------------------------------------
     1     5.94e-02   4.55e-02     
     2     1.14e-02   1.23e-03     
     3     3.88e-03   1.74e-03     
     4     1.59e-03   3.17e-04     Switched to DIIS steps.
     5     4.97e-04   3.13e-04     
     6     2.26e-04   7.66e-05     
     7     6.49e-05   2.87e-05     
     8     2.78e-05   4.32e-06     
     9     9.05e-06   9.66e-07     
    10     3.55e-06   8.43e-08     
    11     1.42e-06   1.45e-07     
    12     4.68e-07   8.67e-08     
 ------------------------------------------------------------------------------
                                   CCSD Lambda converged.

 CCSD calculation:   CPU 2785.12 s  wall 332.81 s

        Solving for CVS-EOMEE-CCSD A1 singlet states.

       EOMEE-CCSD-SINGLES right amplitudes will be solved using Davidson.
        Amplitudes will be solved using shifted  algorithm.
     Hard-coded thresholds: 
     LinDepThresh=1.00e-15  NormThresh=1.00e-06  ReorthogonThresh=1.00e-02

      Roots     MaxVec    MaxIter   Precond   Conv      Shift    
      10        1000      200       1         1.00e-04  1.00e+01  
 ------------------------------------------------------------------------------
      Iter ConvRoots NVecs ResNorm Current eigenvalues (eV)
 ------------------------------------------------------------------------------
      0    0      10    4.87e-04   304.0336   304.6623   305.2046   305.2323   305.2447   305.6566   305.6760   305.8104   306.0251   306.0673   
Rerun orthogonalization...
      1    0      20    1.26e+00   303.9177   304.6109   304.6902   305.0503   305.1636   305.2020   305.6236   305.6993   305.7862   305.9062   
      2    0      30    1.02e-01   299.1540   303.6763   304.3808   304.5260   305.0066   305.1564   305.3899   305.4455   305.4920   305.7233   
      3    0      40    2.44e-02   298.1849   303.6702   304.3271   304.5224   304.9992   305.1546   305.3427   305.3751   305.4256   305.6963   
      4    4      50    4.07e-03   298.1733   303.6699*  304.3207   304.5222*  304.9986   305.1545*  305.3258   305.3734   305.4125   305.6952*  
      5    7      56    6.09e-04   298.1731*  303.6699*  304.3200   304.5222*  304.9986*  305.1545*  305.3227   305.3733*  305.4090   305.6952*  
      6    8      59    2.17e-04   298.1731*  303.6699*  304.3198*  304.5222*  304.9986*  305.1545*  305.3215   305.3732*  305.4081   305.6952*  
      7    10     61    2.61e-05   298.1731*  303.6699*  304.3198*  304.5222*  304.9986*  305.1545*  305.3214*  305.3732*  305.4080*  305.6952*  

     Davidson procedure converged

        CVS-EOMEE-CCSD/MP2 right amplitudes will be solved using Davidson.
        Amplitudes will be solved using shifted  algorithm.
     Hard-coded thresholds: 
     LinDepThresh=1.00e-15  NormThresh=1.00e-06  ReorthogonThresh=1.00e-02

      Roots     MaxVec    MaxIter   Precond   Conv      Shift    
      10        1000      200       1         1.00e-04  1.00e+01  
 ------------------------------------------------------------------------------
      Iter ConvRoots NVecs ResNorm Current eigenvalues (eV)
 ------------------------------------------------------------------------------
      0    0      10    1.43e+00   298.1731   303.6699   304.3198   304.5222   304.9986   305.1545   305.3214   305.3732   305.4080   305.6952   
      1    0      20    1.22e+01   297.0100   301.7043   302.3143   302.6369   302.6958   303.1692   303.6433   303.7983   304.0183   304.3595   
      2    0      30    7.97e-02   288.8535   290.2073   290.9673   291.3337   296.8738   297.6271   298.2118   298.3386   298.6163   298.8074   
      3    0      40    2.11e-02   288.0862   289.6781   290.3915   290.7569   296.7768   297.5321   298.1163   298.2447   298.5206   298.7079   
      4    0      50    2.64e-03   287.8801   289.6395   290.3601   290.6933   296.7689   297.5266   298.1113   298.2395   298.5133   298.6965   
      5    0      60    8.83e-02   287.8355   289.6243   290.3496   290.6537   296.1392   296.7741   297.5216   298.1157   298.2267   298.4454   
Found complex roots...
      6    0      70    1.23e-01   287.8225   289.6164   290.3436   290.6268   291.6280   292.2861   296.7650   296.8428   297.4978   297.8278   
      7    0      80    1.17e-01   287.8147   289.6111   290.3393   290.6051   291.1094   291.3551   293.2342   293.7261   295.4819   296.7646   
      8    0      90    4.79e-02   287.8118   289.6082   290.3337   290.5937   290.9526   291.2473   291.9113   292.3915   293.1498   294.7168   
      9    3      100   1.55e-02   287.8116*  289.6073*  290.3318*  290.5883   290.8797   291.2044   291.5773   291.7993   292.4828   293.3190   
      10   3      107   8.17e-03   287.8116*  289.6072*  290.3317*  290.5870   290.8613   291.1915   291.4866   291.6106   292.1480   292.5314   
Found complex roots...
      11   4      114   2.98e-03   287.8115*  289.6072*  290.3314*  290.5861*  290.8555   291.1863   291.4548   291.5433   292.0008   292.2487   
      12   4      120   1.94e-03   287.8115*  289.6072*  290.3312*  290.5856*  290.8478   291.1794   291.4239   291.5161   291.9137   292.1077   
      13   4      126   8.43e-04   287.8115*  289.6072*  290.3311*  290.5853*  290.8415   291.1742   291.4001   291.5106   291.8690   292.0552   
      14   6      132   4.54e-04   287.8115*  289.6071*  290.3311*  290.5850*  290.8401*  291.1729*  291.3826   291.5095   291.8366   292.0247   
Found complex roots...
      15   7      136   2.46e-04   287.8115*  289.6071*  290.3311*  290.5848*  290.8392*  291.1720*  291.3742   291.5072*  291.8227   292.0143   
Found complex roots...
      16   8      139   2.39e-04   287.8115*  289.6071*  290.3310*  290.5848*  290.8392*  291.1720*  291.3718*  291.5071*  291.8122   291.9995   
Found complex roots...
      17   8      141   3.89e-04   287.8115*  289.6072*  290.3310*  290.5848*  290.8391*  291.1718*  291.3715*  291.5071*  291.8013   291.9820   
      18   8      143   2.97e-04   287.8115*  289.6071*  290.3310*  290.5848*  290.8390*  291.1717*  291.3714*  291.5071*  291.7932   291.9451   
Found complex roots...
      19   8      145   2.42e-04   287.8115*  289.6070*  290.3311*  290.5848*  290.8390*  291.1717*  291.3714*  291.5072*  291.7854   291.9192   
Found complex roots...
      20   8      147   3.12e-04   287.8115*  289.6070*  290.3311*  290.5848*  290.8390*  291.1718*  291.3714*  291.5071*  291.7810   291.9051   
Found complex roots...
      21   8      149   1.28e+00   275.2616   287.8115*  289.6070*  290.3310*  290.5848*  290.8388*  291.1717*  291.3714*  291.5070*  291.7766   
      22   8      151   2.07e-04   287.8115*  289.6070*  290.3310*  290.5848*  290.8389*  291.1717*  291.3714*  291.5070*  291.7817   291.9056   
      23   8      153   5.08e-05   287.8115*  289.6070*  290.3310*  290.5848*  290.8389*  291.1717*  291.3714*  291.5071*  291.7781   291.9006   
      24   9      155   3.62e-05   287.8115*  289.6070*  290.3310*  290.5848*  290.8389*  291.1717*  291.3714*  291.5071*  291.7778*  291.8977   
Found complex roots...
      25   8      156   8.82e-05   287.8115*  289.6070*  290.3310*  290.5848*  290.8389*  291.1717*  291.3715*  291.5070*  291.7770   291.8969   
      26   8      158   2.17e+00   287.8115*  255.1772   289.6071*  290.3310*  290.5848*  290.8389*  291.1716*  291.3715*  291.5070*  291.7774   
      27   10     160   2.03e-05   287.8115*  289.6070*  290.3310*  290.5848*  290.8389*  291.1717*  291.3714*  291.5071*  291.7772*  291.8969*  

     Davidson procedure converged

 EOMEE transition 1/A1
 Total energy = -2793.30530382 a.u.  Excitation energy = 287.8115 eV.
 R0^2 = 0.0000  R1^2 = 0.8374  R2_CCVV^2 = 0.0019  R2_COVV^2 = 0.0804  Res^2 = 8.60e-06
 Conv-d = yes

 Amplitude    Transitions between orbitals
 -0.3044       4 (A1) A                  ->    32 (A1) A                  
 -0.3044       4 (A1) B                  ->    32 (A1) B                  
  0.2691       4 (A1) A                  ->    31 (A1) A                  
  0.2691       4 (A1) B                  ->    31 (A1) B                  
 -0.2674       4 (A1) A                  ->    36 (A1) A                  
 -0.2674       4 (A1) B                  ->    36 (A1) B                  
  0.1983       4 (A1) A                  ->    34 (A1) A                  
  0.1983       4 (A1) B                  ->    34 (A1) B                  
 -0.1955       4 (A1) A                  ->    28 (A1) A                  
 -0.1955       4 (A1) B                  ->    28 (A1) B                  
 -0.1291       4 (A1) A                  ->    30 (A1) A                  
 -0.1291       4 (A1) B                  ->    30 (A1) B                  
 -0.1233       4 (A1) A                  ->    39 (A1) A                  
 -0.1233       4 (A1) B                  ->    39 (A1) B                  

              Summary of significant orbitals:

               Number  Type             Irrep      Energy
               6       Occ  Alpha       4 (A1)    -11.3046
               6       Occ  Beta        4 (A1)    -11.3046
               60      Vir  Alpha      28 (A1)      0.0816
               65      Vir  Alpha      30 (A1)      0.1014
               67      Vir  Alpha      31 (A1)      0.1233
               68      Vir  Alpha      32 (A1)      0.1397
               74      Vir  Alpha      34 (A1)      0.1956
               78      Vir  Alpha      36 (A1)      0.2140
               87      Vir  Alpha      39 (A1)      0.2522
               60      Vir  Beta       28 (A1)      0.0816
               65      Vir  Beta       30 (A1)      0.1014
               67      Vir  Beta       31 (A1)      0.1233
               68      Vir  Beta       32 (A1)      0.1397
               74      Vir  Beta       34 (A1)      0.1956
               78      Vir  Beta       36 (A1)      0.2140
               87      Vir  Beta       39 (A1)      0.2522


 EOMEE transition 2/A1
 Total energy = -2793.23931946 a.u.  Excitation energy = 289.6070 eV.
 R0^2 = 0.0000  R1^2 = 0.7949  R2_CCVV^2 = 0.0016  R2_COVV^2 = 0.1018  Res^2 = 5.18e-06
 Conv-d = yes

 Amplitude    Transitions between orbitals
  0.4013       4 (A1) A                  ->    20 (A1) A                  
  0.4013       4 (A1) B                  ->    20 (A1) B                  
 -0.2706       4 (A1) A                  ->    25 (A1) A                  
 -0.2706       4 (A1) B                  ->    25 (A1) B                  
  0.1943       4 (A1) A                  ->    26 (A1) A                  
  0.1943       4 (A1) B                  ->    26 (A1) B                  
  0.1929       4 (A1) A                  ->    28 (A1) A                  
  0.1929       4 (A1) B                  ->    28 (A1) B                  
  0.1343       4 (A1) A                  ->    21 (A1) A                  
  0.1343       4 (A1) B                  ->    21 (A1) B                  
  0.1322       4 (A1) A                  ->    22 (A1) A                  
  0.1322       4 (A1) B                  ->    22 (A1) B                  
  0.1179       4 (A1) A                  ->    34 (A1) A                  
  0.1179       4 (A1) B                  ->    34 (A1) B                  

              Summary of significant orbitals:

               Number  Type             Irrep      Energy
               6       Occ  Alpha       4 (A1)    -11.3046
               6       Occ  Beta        4 (A1)    -11.3046
               39      Vir  Alpha      20 (A1)      0.0132
               41      Vir  Alpha      21 (A1)      0.0204
               44      Vir  Alpha      22 (A1)      0.0297
               52      Vir  Alpha      25 (A1)      0.0587
               54      Vir  Alpha      26 (A1)      0.0654
               60      Vir  Alpha      28 (A1)      0.0816
               74      Vir  Alpha      34 (A1)      0.1956
               39      Vir  Beta       20 (A1)      0.0132
               41      Vir  Beta       21 (A1)      0.0204
               44      Vir  Beta       22 (A1)      0.0297
               52      Vir  Beta       25 (A1)      0.0587
               54      Vir  Beta       26 (A1)      0.0654
               60      Vir  Beta       28 (A1)      0.0816
               74      Vir  Beta       34 (A1)      0.1956


 EOMEE transition 3/A1
 Total energy = -2793.21271353 a.u.  Excitation energy = 290.3310 eV.
 R0^2 = 0.0000  R1^2 = 0.7913  R2_CCVV^2 = 0.0016  R2_COVV^2 = 0.1035  Res^2 = 3.09e-06
 Conv-d = yes

 Amplitude    Transitions between orbitals
  0.4689       4 (A1) A                  ->    21 (A1) A                  
  0.4689       4 (A1) B                  ->    21 (A1) B                  
 -0.2311       4 (A1) A                  ->    20 (A1) A                  
 -0.2311       4 (A1) B                  ->    20 (A1) B                  
  0.2234       4 (A1) A                  ->    26 (A1) A                  
  0.2234       4 (A1) B                  ->    26 (A1) B                  
  0.1651       4 (A1) A                  ->    29 (A1) A                  
  0.1651       4 (A1) B                  ->    29 (A1) B                  
  0.1061       4 (A1) A                  ->    25 (A1) A                  
  0.1061       4 (A1) B                  ->    25 (A1) B                  
 -0.1036       4 (A1) A                  ->    31 (A1) A                  
 -0.1036       4 (A1) B                  ->    31 (A1) B                  

              Summary of significant orbitals:

               Number  Type             Irrep      Energy
               6       Occ  Alpha       4 (A1)    -11.3046
               6       Occ  Beta        4 (A1)    -11.3046
               39      Vir  Alpha      20 (A1)      0.0132
               41      Vir  Alpha      21 (A1)      0.0204
               52      Vir  Alpha      25 (A1)      0.0587
               54      Vir  Alpha      26 (A1)      0.0654
               61      Vir  Alpha      29 (A1)      0.0865
               67      Vir  Alpha      31 (A1)      0.1233
               39      Vir  Beta       20 (A1)      0.0132
               41      Vir  Beta       21 (A1)      0.0204
               52      Vir  Beta       25 (A1)      0.0587
               54      Vir  Beta       26 (A1)      0.0654
               61      Vir  Beta       29 (A1)      0.0865
               67      Vir  Beta       31 (A1)      0.1233


 EOMEE transition 4/A1
 Total energy = -2793.20338706 a.u.  Excitation energy = 290.5848 eV.
 R0^2 = 0.0000  R1^2 = 0.7948  R2_CCVV^2 = 0.0016  R2_COVV^2 = 0.1018  Res^2 = 7.30e-06
 Conv-d = yes

 Amplitude    Transitions between orbitals
  0.3841       4 (A1) A                  ->    23 (A1) A                  
  0.3841       4 (A1) B                  ->    23 (A1) B                  
 -0.2263       4 (A1) A                  ->    30 (A1) A                  
 -0.2263       4 (A1) B                  ->    30 (A1) B                  
 -0.2083       4 (A1) A                  ->    20 (A1) A                  
 -0.2083       4 (A1) B                  ->    20 (A1) B                  
  0.1878       4 (A1) A                  ->    24 (A1) A                  
  0.1878       4 (A1) B                  ->    24 (A1) B                  
  0.1833       4 (A1) A                  ->    28 (A1) A                  
  0.1833       4 (A1) B                  ->    28 (A1) B                  
  0.1339       4 (A1) A                  ->    29 (A1) A                  
  0.1339       4 (A1) B                  ->    29 (A1) B                  
  0.1236       4 (A1) A                  ->    32 (A1) A                  
  0.1236       4 (A1) B                  ->    32 (A1) B                  
 -0.1060       4 (A1) A                  ->    35 (A1) A                  
 -0.1060       4 (A1) B                  ->    35 (A1) B                  

              Summary of significant orbitals:

               Number  Type             Irrep      Energy
               6       Occ  Alpha       4 (A1)    -11.3046
               6       Occ  Beta        4 (A1)    -11.3046
               39      Vir  Alpha      20 (A1)      0.0132
               45      Vir  Alpha      23 (A1)      0.0365
               49      Vir  Alpha      24 (A1)      0.0478
               60      Vir  Alpha      28 (A1)      0.0816
               61      Vir  Alpha      29 (A1)      0.0865
               65      Vir  Alpha      30 (A1)      0.1014
               68      Vir  Alpha      32 (A1)      0.1397
               76      Vir  Alpha      35 (A1)      0.2026
               39      Vir  Beta       20 (A1)      0.0132
               45      Vir  Beta       23 (A1)      0.0365
               49      Vir  Beta       24 (A1)      0.0478
               60      Vir  Beta       28 (A1)      0.0816
               61      Vir  Beta       29 (A1)      0.0865
               65      Vir  Beta       30 (A1)      0.1014
               68      Vir  Beta       32 (A1)      0.1397
               76      Vir  Beta       35 (A1)      0.2026


 EOMEE transition 5/A1
 Total energy = -2793.19404999 a.u.  Excitation energy = 290.8389 eV.
 R0^2 = 0.0000  R1^2 = 0.7923  R2_CCVV^2 = 0.0016  R2_COVV^2 = 0.1030  Res^2 = 1.45e-05
 Conv-d = yes

 Amplitude    Transitions between orbitals
  0.5033       4 (A1) A                  ->    22 (A1) A                  
  0.5033       4 (A1) B                  ->    22 (A1) B                  
 -0.1741       4 (A1) A                  ->    20 (A1) A                  
 -0.1741       4 (A1) B                  ->    20 (A1) B                  
  0.1503       4 (A1) A                  ->    28 (A1) A                  
  0.1503       4 (A1) B                  ->    28 (A1) B                  
 -0.1316       4 (A1) A                  ->    27 (A1) A                  
 -0.1316       4 (A1) B                  ->    27 (A1) B                  
 -0.1175       4 (A1) A                  ->    23 (A1) A                  
 -0.1175       4 (A1) B                  ->    23 (A1) B                  
  0.1051       4 (A1) A                  ->    30 (A1) A                  
  0.1051       4 (A1) B                  ->    30 (A1) B                  

              Summary of significant orbitals:

               Number  Type             Irrep      Energy
               6       Occ  Alpha       4 (A1)    -11.3046
               6       Occ  Beta        4 (A1)    -11.3046
               39      Vir  Alpha      20 (A1)      0.0132
               44      Vir  Alpha      22 (A1)      0.0297
               45      Vir  Alpha      23 (A1)      0.0365
               57      Vir  Alpha      27 (A1)      0.0687
               60      Vir  Alpha      28 (A1)      0.0816
               65      Vir  Alpha      30 (A1)      0.1014
               39      Vir  Beta       20 (A1)      0.0132
               44      Vir  Beta       22 (A1)      0.0297
               45      Vir  Beta       23 (A1)      0.0365
               57      Vir  Beta       27 (A1)      0.0687
               60      Vir  Beta       28 (A1)      0.0816
               65      Vir  Beta       30 (A1)      0.1014


 EOMEE transition 6/A1
 Total energy = -2793.18182106 a.u.  Excitation energy = 291.1717 eV.
 R0^2 = 0.0000  R1^2 = 0.7939  R2_CCVV^2 = 0.0016  R2_COVV^2 = 0.1023  Res^2 = 2.09e-05
 Conv-d = yes

 Amplitude    Transitions between orbitals
  0.2785       4 (A1) A                  ->    20 (A1) A                  
  0.2785       4 (A1) B                  ->    20 (A1) B                  
  0.2401       4 (A1) A                  ->    21 (A1) A                  
  0.2401       4 (A1) B                  ->    21 (A1) B                  
  0.2314       4 (A1) A                  ->    25 (A1) A                  
  0.2314       4 (A1) B                  ->    25 (A1) B                  
  0.2146       4 (A1) A                  ->    24 (A1) A                  
  0.2146       4 (A1) B                  ->    24 (A1) B                  
 -0.2095       4 (A1) A                  ->    26 (A1) A                  
 -0.2095       4 (A1) B                  ->    26 (A1) B                  
  0.1780       4 (A1) A                  ->    23 (A1) A                  
  0.1780       4 (A1) B                  ->    23 (A1) B                  
  0.1376       4 (A1) A                  ->    22 (A1) A                  
  0.1376       4 (A1) B                  ->    22 (A1) B                  
 -0.1235       4 (A1) A                  ->    33 (A1) A                  
 -0.1235       4 (A1) B                  ->    33 (A1) B                  
 -0.1169       4 (A1) A                  ->    28 (A1) A                  
 -0.1169       4 (A1) B                  ->    28 (A1) B                  
 -0.1045       4 (A1) A                  ->    27 (A1) A                  
 -0.1045       4 (A1) B                  ->    27 (A1) B                  

              Summary of significant orbitals:

               Number  Type             Irrep      Energy
               6       Occ  Alpha       4 (A1)    -11.3046
               6       Occ  Beta        4 (A1)    -11.3046
               39      Vir  Alpha      20 (A1)      0.0132
               41      Vir  Alpha      21 (A1)      0.0204
               44      Vir  Alpha      22 (A1)      0.0297
               45      Vir  Alpha      23 (A1)      0.0365
               49      Vir  Alpha      24 (A1)      0.0478
               52      Vir  Alpha      25 (A1)      0.0587
               54      Vir  Alpha      26 (A1)      0.0654
               57      Vir  Alpha      27 (A1)      0.0687
               60      Vir  Alpha      28 (A1)      0.0816
               72      Vir  Alpha      33 (A1)      0.1769
               39      Vir  Beta       20 (A1)      0.0132
               41      Vir  Beta       21 (A1)      0.0204
               44      Vir  Beta       22 (A1)      0.0297
               45      Vir  Beta       23 (A1)      0.0365
               49      Vir  Beta       24 (A1)      0.0478
               52      Vir  Beta       25 (A1)      0.0587
               54      Vir  Beta       26 (A1)      0.0654
               57      Vir  Beta       27 (A1)      0.0687
               60      Vir  Beta       28 (A1)      0.0816
               72      Vir  Beta       33 (A1)      0.1769


 EOMEE transition 7/A1
 Total energy = -2793.17447951 a.u.  Excitation energy = 291.3714 eV.
 R0^2 = 0.0000  R1^2 = 0.7928  R2_CCVV^2 = 0.0016  R2_COVV^2 = 0.1028  Res^2 = 3.73e-05
 Conv-d = yes

 Amplitude    Transitions between orbitals
 -0.3093       4 (A1) A                  ->    25 (A1) A                  
 -0.3093       4 (A1) B                  ->    25 (A1) B                  
  0.2918       4 (A1) A                  ->    24 (A1) A                  
  0.2918       4 (A1) B                  ->    24 (A1) B                  
 -0.2729       4 (A1) A                  ->    23 (A1) A                  
 -0.2729       4 (A1) B                  ->    23 (A1) B                  
  0.2071       4 (A1) A                  ->    21 (A1) A                  
  0.2071       4 (A1) B                  ->    21 (A1) B                  
 -0.1383       4 (A1) A                  ->    26 (A1) A                  
 -0.1383       4 (A1) B                  ->    26 (A1) B                  
 -0.1247       4 (A1) A                  ->    22 (A1) A                  
 -0.1247       4 (A1) B                  ->    22 (A1) B                  
 -0.1180       4 (A1) A                  ->    27 (A1) A                  
 -0.1180       4 (A1) B                  ->    27 (A1) B                  
  0.1118       4 (A1) A                  ->    31 (A1) A                  
  0.1118       4 (A1) B                  ->    31 (A1) B                  

              Summary of significant orbitals:

               Number  Type             Irrep      Energy
               6       Occ  Alpha       4 (A1)    -11.3046
               6       Occ  Beta        4 (A1)    -11.3046
               41      Vir  Alpha      21 (A1)      0.0204
               44      Vir  Alpha      22 (A1)      0.0297
               45      Vir  Alpha      23 (A1)      0.0365
               49      Vir  Alpha      24 (A1)      0.0478
               52      Vir  Alpha      25 (A1)      0.0587
               54      Vir  Alpha      26 (A1)      0.0654
               57      Vir  Alpha      27 (A1)      0.0687
               67      Vir  Alpha      31 (A1)      0.1233
               41      Vir  Beta       21 (A1)      0.0204
               44      Vir  Beta       22 (A1)      0.0297
               45      Vir  Beta       23 (A1)      0.0365
               49      Vir  Beta       24 (A1)      0.0478
               52      Vir  Beta       25 (A1)      0.0587
               54      Vir  Beta       26 (A1)      0.0654
               57      Vir  Beta       27 (A1)      0.0687
               67      Vir  Beta       31 (A1)      0.1233


 EOMEE transition 8/A1
 Total energy = -2793.16949521 a.u.  Excitation energy = 291.5071 eV.
 R0^2 = 0.0000  R1^2 = 0.7927  R2_CCVV^2 = 0.0016  R2_COVV^2 = 0.1028  Res^2 = 4.37e-05
 Conv-d = yes

 Amplitude    Transitions between orbitals
  0.3896       4 (A1) A                  ->    26 (A1) A                  
  0.3896       4 (A1) B                  ->    26 (A1) B                  
  0.3623       4 (A1) A                  ->    24 (A1) A                  
  0.3623       4 (A1) B                  ->    24 (A1) B                  
  0.1793       4 (A1) A                  ->    25 (A1) A                  
  0.1793       4 (A1) B                  ->    25 (A1) B                  
 -0.1569       4 (A1) A                  ->    21 (A1) A                  
 -0.1569       4 (A1) B                  ->    21 (A1) B                  
 -0.1320       4 (A1) A                  ->    23 (A1) A                  
 -0.1320       4 (A1) B                  ->    23 (A1) B                  
  0.1091       4 (A1) A                  ->    32 (A1) A                  
  0.1091       4 (A1) B                  ->    32 (A1) B                  

              Summary of significant orbitals:

               Number  Type             Irrep      Energy
               6       Occ  Alpha       4 (A1)    -11.3046
               6       Occ  Beta        4 (A1)    -11.3046
               41      Vir  Alpha      21 (A1)      0.0204
               45      Vir  Alpha      23 (A1)      0.0365
               49      Vir  Alpha      24 (A1)      0.0478
               52      Vir  Alpha      25 (A1)      0.0587
               54      Vir  Alpha      26 (A1)      0.0654
               68      Vir  Alpha      32 (A1)      0.1397
               41      Vir  Beta       21 (A1)      0.0204
               45      Vir  Beta       23 (A1)      0.0365
               49      Vir  Beta       24 (A1)      0.0478
               52      Vir  Beta       25 (A1)      0.0587
               54      Vir  Beta       26 (A1)      0.0654
               68      Vir  Beta       32 (A1)      0.1397


 EOMEE transition 9/A1
 Total energy = -2793.15956654 a.u.  Excitation energy = 291.7772 eV.
 R0^2 = 0.0000  R1^2 = 0.7934  R2_CCVV^2 = 0.0016  R2_COVV^2 = 0.1025  Res^2 = 1.88e-05
 Conv-d = yes

 Amplitude    Transitions between orbitals
  0.2645       4 (A1) A                  ->    23 (A1) A                  
  0.2645       4 (A1) B                  ->    23 (A1) B                  
 -0.2610       4 (A1) A                  ->    29 (A1) A                  
 -0.2610       4 (A1) B                  ->    29 (A1) B                  
 -0.2276       4 (A1) A                  ->    25 (A1) A                  
 -0.2276       4 (A1) B                  ->    25 (A1) B                  
  0.2020       4 (A1) A                  ->    30 (A1) A                  
  0.2020       4 (A1) B                  ->    30 (A1) B                  
 -0.2006       4 (A1) A                  ->    28 (A1) A                  
 -0.2006       4 (A1) B                  ->    28 (A1) B                  
  0.1467       4 (A1) A                  ->    22 (A1) A                  
  0.1467       4 (A1) B                  ->    22 (A1) B                  
 -0.1327       4 (A1) A                  ->    20 (A1) A                  
 -0.1327       4 (A1) B                  ->    20 (A1) B                  
  0.1262       4 (A1) A                  ->    26 (A1) A                  
  0.1262       4 (A1) B                  ->    26 (A1) B                  
  0.1260       4 (A1) A                  ->    24 (A1) A                  
  0.1260       4 (A1) B                  ->    24 (A1) B                  

              Summary of significant orbitals:

               Number  Type             Irrep      Energy
               6       Occ  Alpha       4 (A1)    -11.3046
               6       Occ  Beta        4 (A1)    -11.3046
               39      Vir  Alpha      20 (A1)      0.0132
               44      Vir  Alpha      22 (A1)      0.0297
               45      Vir  Alpha      23 (A1)      0.0365
               49      Vir  Alpha      24 (A1)      0.0478
               52      Vir  Alpha      25 (A1)      0.0587
               54      Vir  Alpha      26 (A1)      0.0654
               60      Vir  Alpha      28 (A1)      0.0816
               61      Vir  Alpha      29 (A1)      0.0865
               65      Vir  Alpha      30 (A1)      0.1014
               39      Vir  Beta       20 (A1)      0.0132
               44      Vir  Beta       22 (A1)      0.0297
               45      Vir  Beta       23 (A1)      0.0365
               49      Vir  Beta       24 (A1)      0.0478
               52      Vir  Beta       25 (A1)      0.0587
               54      Vir  Beta       26 (A1)      0.0654
               60      Vir  Beta       28 (A1)      0.0816
               61      Vir  Beta       29 (A1)      0.0865
               65      Vir  Beta       30 (A1)      0.1014


 EOMEE transition 10/A1
 Total energy = -2793.15516833 a.u.  Excitation energy = 291.8969 eV.
 R0^2 = 0.0000  R1^2 = 0.7933  R2_CCVV^2 = 0.0016  R2_COVV^2 = 0.1026  Res^2 = 4.37e-05
 Conv-d = yes

 Amplitude    Transitions between orbitals
 -0.3942       4 (A1) A                  ->    27 (A1) A                  
 -0.3942       4 (A1) B                  ->    27 (A1) B                  
 -0.2212       4 (A1) A                  ->    22 (A1) A                  
 -0.2212       4 (A1) B                  ->    22 (A1) B                  
  0.2137       4 (A1) A                  ->    28 (A1) A                  
  0.2137       4 (A1) B                  ->    28 (A1) B                  
  0.1884       4 (A1) A                  ->    30 (A1) A                  
  0.1884       4 (A1) B                  ->    30 (A1) B                  
  0.1633       4 (A1) A                  ->    23 (A1) A                  
  0.1633       4 (A1) B                  ->    23 (A1) B                  
 -0.1292       4 (A1) A                  ->    32 (A1) A                  
 -0.1292       4 (A1) B                  ->    32 (A1) B                  
 -0.1110       4 (A1) A                  ->    33 (A1) A                  
 -0.1110       4 (A1) B                  ->    33 (A1) B                  

              Summary of significant orbitals:

               Number  Type             Irrep      Energy
               6       Occ  Alpha       4 (A1)    -11.3046
               6       Occ  Beta        4 (A1)    -11.3046
               44      Vir  Alpha      22 (A1)      0.0297
               45      Vir  Alpha      23 (A1)      0.0365
               57      Vir  Alpha      27 (A1)      0.0687
               60      Vir  Alpha      28 (A1)      0.0816
               65      Vir  Alpha      30 (A1)      0.1014
               68      Vir  Alpha      32 (A1)      0.1397
               72      Vir  Alpha      33 (A1)      0.1769
               44      Vir  Beta       22 (A1)      0.0297
               45      Vir  Beta       23 (A1)      0.0365
               57      Vir  Beta       27 (A1)      0.0687
               60      Vir  Beta       28 (A1)      0.0816
               65      Vir  Beta       30 (A1)      0.1014
               68      Vir  Beta       32 (A1)      0.1397
               72      Vir  Beta       33 (A1)      0.1769


      CVS-EOM-CCSD/MP2 left amplitudes will be solved using Davidson.
        Amplitudes will be solved using MOM  algorithm.
     Hard-coded thresholds: 
     LinDepThresh=1.00e-15  NormThresh=1.00e-06  ReorthogonThresh=1.00e-02

      Roots     MaxVec    MaxIter   Precond   Conv      Shift    
      10        1000      200       1         1.00e-04  1.00e+01  
 ------------------------------------------------------------------------------
      Iter ConvRoots NVecs ResNorm Current eigenvalues (eV)
 ------------------------------------------------------------------------------
      0    0      10    3.53e-02   287.8115   289.6070   290.3310   290.5848   290.8389   291.1717   291.3714   291.5071   291.7772   291.8969   
      1    0      20    1.32e+01   287.8114   289.6070   290.3310   290.5847   290.8389   291.1716   291.3712   291.5070   291.7771   291.8967   
      2    0      30    7.58e-03   287.8115   289.6070   290.3310   290.5848   290.8390   291.1718   291.3714   291.5073   291.7772   291.8969   
      3    0      40    3.53e-03   287.8114   289.6070   290.3310   290.5848   290.8389   291.1717   291.3713   291.5071   291.7771   291.8967   
      4    1      50    2.79e-03   287.8114   289.6070   290.3310*  290.5848   290.8390   291.1718   291.3712   291.5071   291.7770   291.8968   
      5    5      59    1.33e-04   287.8114*  289.6070*  290.3310*  290.5848*  290.8390   291.1717*  291.3711   291.5071   291.7772   291.8968   
      6    3      64    4.09e-04   287.8114   289.6070   290.3310*  290.5848*  290.8390   291.1717   291.3712   291.5072   291.7772*  291.8968   
      7    10     71    4.86e-05   287.8114*  289.6070*  290.3310*  290.5848*  290.8390*  291.1717*  291.3712*  291.5071*  291.7771*  291.8967*  

     Davidson procedure converged

        Solving for CVS-EOMEE-CCSD B1 singlet states.

       EOMEE-CCSD-SINGLES right amplitudes will be solved using Davidson.
        Amplitudes will be solved using shifted  algorithm.
     Hard-coded thresholds: 
     LinDepThresh=1.00e-15  NormThresh=1.00e-06  ReorthogonThresh=1.00e-02

      Roots     MaxVec    MaxIter   Precond   Conv      Shift    
      10        1000      200       1         1.00e-04  1.00e+01  
 ------------------------------------------------------------------------------
      Iter ConvRoots NVecs ResNorm Current eigenvalues (eV)
 ------------------------------------------------------------------------------
      0    0      10    4.69e-04   303.6702   304.2637   304.6536   304.7812   305.1586   305.2035   305.3828   305.5579   305.7508   306.0542   
Rerun orthogonalization...
      1    0      20    3.45e-01   303.5137   304.1739   304.3957   304.6558   305.0740   305.1262   305.2940   305.3496   305.6932   305.9533   
      2    0      30    6.23e-02   303.1656   304.0159   304.0871   304.4543   304.7548   304.9641   305.1718   305.2015   305.2639   305.5521   
      3    0      40    1.64e-02   303.1453   303.9601   304.0804   304.4181   304.7078   304.9276   305.1608   305.1949   305.2159   305.5131   
      4    2      50    6.07e-04   303.1441   303.9575   304.0801*  304.4160   304.7057   304.9262*  305.1582   305.1943   305.2137   305.5072   
      5    9      58    9.77e-05   303.1441*  303.9574*  304.0801*  304.4159*  304.7057*  304.9261*  305.1579   305.1943*  305.2136*  305.5070*  
      6    9      59    7.19e-05   303.1441*  303.9574*  304.0801*  304.4159*  304.7057*  304.9261*  305.1577   305.1943*  305.2136*  305.5070*  
      7    10     60    9.70e-06   303.1441*  303.9574*  304.0801*  304.4159*  304.7057*  304.9261*  305.1577*  305.1943*  305.2136*  305.5070*  

     Davidson procedure converged

        CVS-EOMEE-CCSD/MP2 right amplitudes will be solved using Davidson.
        Amplitudes will be solved using shifted  algorithm.
     Hard-coded thresholds: 
     LinDepThresh=1.00e-15  NormThresh=1.00e-06  ReorthogonThresh=1.00e-02

      Roots     MaxVec    MaxIter   Precond   Conv      Shift    
      10        1000      200       1         1.00e-04  1.00e+01  
 ------------------------------------------------------------------------------
      Iter ConvRoots NVecs ResNorm Current eigenvalues (eV)
 ------------------------------------------------------------------------------
      0    0      10    1.21e+00   303.1441   303.9574   304.0801   304.4159   304.7057   304.9261   305.1577   305.1943   305.2136   305.5070   
      1    0      20    7.16e+00   301.8378   302.3427   302.7005   302.7404   303.1324   303.3934   303.6449   303.8551   303.9682   304.2111   
      2    0      30    2.57e-02   290.7666   296.2821   296.8585   297.1259   297.4716   297.7570   298.1014   298.2979   298.3731   298.6666   
      3    0      40    3.77e-03   290.2227   296.1655   296.7272   297.0248   297.3779   297.6554   298.0034   298.1986   298.2807   298.5669   
      4    0      50    9.69e-04   290.1944   296.1450   296.6999   297.0137   297.3692   297.6456   297.9959   298.1919   298.2764   298.5575   
      5    0      60    1.77e-03   290.1844   296.1332   296.6810   297.0038   297.3605   297.6349   297.9859   298.1787   298.2713   298.5391   
      6    0      70    6.13e-02   290.1792   292.9870   295.0882   296.1331   296.6753   296.9981   297.3549   297.6198   297.9888   298.1858   
      7    0      80    7.45e-02   290.1751   291.3194   291.9332   295.7710   296.1352   296.3311   296.6791   296.9976   297.3677   297.6393   
      8    1      90    5.49e-02   290.1723   290.9803   291.5060   292.5090   292.8424   294.4536   296.1287*  296.6730   296.9963   297.3587   
      9    3      99    2.38e-02   290.1710*  290.8960   291.4352   291.6669   292.0813   292.5744   295.5749   296.1283*  296.6744   296.9963*  
      10   1      106   2.45e-02   290.1709*  290.8708   291.3793   291.5419   291.9080   292.1602   293.7290   296.1232   296.2129   296.6758   
      11   2      115   3.74e-02   290.1709*  290.8620   291.3621   291.5217   291.8555   292.0820   292.9570   294.5884   295.4741   296.1285*  
Found complex roots...
      12   1      123   1.58e-02   290.1708*  290.8486   291.3527   291.5148   291.8418   292.0535   292.4193   293.0352   294.3963   295.8824   
      13   2      132   9.65e-03   290.1708*  290.8457   291.3508*  291.5117   291.8143   292.0497   292.1693   292.8372   294.1698   294.4425   
Found complex roots...
      14   4      140   3.72e-03   290.1708*  290.8446*  291.3506*  291.5103*  291.8067   292.0444   292.1102   292.7535   293.7598   294.0599   
Found complex roots...
      15   6      146   1.68e-03   290.1708*  290.8444*  291.3502*  291.5098*  291.8050*  292.0418*  292.0960   292.7000   293.5076   293.9994   
      16   6      150   9.90e-04   290.1708*  290.8443*  291.3500*  291.5097*  291.8048*  292.0413*  292.0912   292.6676   293.4016   293.9524   
Found complex roots...
      17   7      154   4.10e-04   290.1708*  290.8442*  291.3500*  291.5097*  291.8043*  292.0411*  292.0886*  292.6517   293.3489   293.8994   
      18   7      157   1.28e-04   290.1708*  290.8442*  291.3500*  291.5096*  291.8043*  292.0410*  292.0879*  292.6486   293.3355   293.8873   
      19   8      160   6.47e-05   290.1708*  290.8442*  291.3500*  291.5096*  291.8043*  292.0410*  292.0878*  292.6478*  293.3317   293.8774   
      20   9      162   2.86e-05   290.1708*  290.8442*  291.3500*  291.5097*  291.8043*  292.0410*  292.0878*  292.6470*  293.3307*  293.8739   
      21   10     163   1.92e-05   290.1708*  290.8442*  291.3500*  291.5096*  291.8043*  292.0410*  292.0878*  292.6470*  293.3303*  293.8718*  

     Davidson procedure converged

 EOMEE transition 1/B1
 Total energy = -2793.21860335 a.u.  Excitation energy = 290.1708 eV.
 R0^2 = 0.0000  R1^2 = 0.7929  R2_CCVV^2 = 0.0016  R2_COVV^2 = 0.1027  Res^2 = 4.11e-07
 Conv-d = yes

 Amplitude    Transitions between orbitals
 -0.5056       4 (A1) A                  ->    12 (B1) A                  
 -0.5056       4 (A1) B                  ->    12 (B1) B                  
 -0.1983       4 (A1) A                  ->    15 (B1) A                  
 -0.1983       4 (A1) B                  ->    15 (B1) B                  
 -0.1598       4 (A1) A                  ->    18 (B1) A                  
 -0.1598       4 (A1) B                  ->    18 (B1) B                  
 -0.1354       4 (A1) A                  ->    17 (B1) A                  
 -0.1354       4 (A1) B                  ->    17 (B1) B                  
 -0.1284       4 (A1) A                  ->    16 (B1) A                  
 -0.1284       4 (A1) B                  ->    16 (B1) B                  
  0.1146       4 (A1) A                  ->    19 (B1) A                  
  0.1146       4 (A1) B                  ->    19 (B1) B                  
  0.1059       4 (A1) A                  ->    14 (B1) A                  
  0.1059       4 (A1) B                  ->    14 (B1) B                  

              Summary of significant orbitals:

               Number  Type             Irrep      Energy
               6       Occ  Alpha       4 (A1)    -11.3046
               6       Occ  Beta        4 (A1)    -11.3046
               40      Vir  Alpha      12 (B1)      0.0201
               48      Vir  Alpha      14 (B1)      0.0473
               53      Vir  Alpha      15 (B1)      0.0630
               55      Vir  Alpha      16 (B1)      0.0668
               59      Vir  Alpha      17 (B1)      0.0763
               62      Vir  Alpha      18 (B1)      0.0908
               66      Vir  Alpha      19 (B1)      0.1191
               40      Vir  Beta       12 (B1)      0.0201
               48      Vir  Beta       14 (B1)      0.0473
               53      Vir  Beta       15 (B1)      0.0630
               55      Vir  Beta       16 (B1)      0.0668
               59      Vir  Beta       17 (B1)      0.0763
               62      Vir  Beta       18 (B1)      0.0908
               66      Vir  Beta       19 (B1)      0.1191


 EOMEE transition 2/B1
 Total energy = -2793.19385421 a.u.  Excitation energy = 290.8442 eV.
 R0^2 = 0.0000  R1^2 = 0.7921  R2_CCVV^2 = 0.0016  R2_COVV^2 = 0.1031  Res^2 = 9.49e-07
 Conv-d = yes

 Amplitude    Transitions between orbitals
 -0.5373       4 (A1) A                  ->    13 (B1) A                  
 -0.5373       4 (A1) B                  ->    13 (B1) B                  
  0.2324       4 (A1) A                  ->    17 (B1) A                  
  0.2324       4 (A1) B                  ->    17 (B1) B                  
 -0.1253       4 (A1) A                  ->    12 (B1) A                  
 -0.1253       4 (A1) B                  ->    12 (B1) B                  
 -0.1242       4 (A1) A                  ->    18 (B1) A                  
 -0.1242       4 (A1) B                  ->    18 (B1) B                  

              Summary of significant orbitals:

               Number  Type             Irrep      Energy
               6       Occ  Alpha       4 (A1)    -11.3046
               6       Occ  Beta        4 (A1)    -11.3046
               40      Vir  Alpha      12 (B1)      0.0201
               43      Vir  Alpha      13 (B1)      0.0291
               59      Vir  Alpha      17 (B1)      0.0763
               62      Vir  Alpha      18 (B1)      0.0908
               40      Vir  Beta       12 (B1)      0.0201
               43      Vir  Beta       13 (B1)      0.0291
               59      Vir  Beta       17 (B1)      0.0763
               62      Vir  Beta       18 (B1)      0.0908


 EOMEE transition 3/B1
 Total energy = -2793.17526676 a.u.  Excitation energy = 291.3500 eV.
 R0^2 = 0.0000  R1^2 = 0.7926  R2_CCVV^2 = 0.0016  R2_COVV^2 = 0.1029  Res^2 = 6.48e-06
 Conv-d = yes

 Amplitude    Transitions between orbitals
  0.5046       4 (A1) A                  ->    14 (B1) A                  
  0.5046       4 (A1) B                  ->    14 (B1) B                  
  0.2325       4 (A1) A                  ->    12 (B1) A                  
  0.2325       4 (A1) B                  ->    12 (B1) B                  
  0.1892       4 (A1) A                  ->    19 (B1) A                  
  0.1892       4 (A1) B                  ->    19 (B1) B                  
 -0.1339       4 (A1) A                  ->    16 (B1) A                  
 -0.1339       4 (A1) B                  ->    16 (B1) B                  

              Summary of significant orbitals:

               Number  Type             Irrep      Energy
               6       Occ  Alpha       4 (A1)    -11.3046
               6       Occ  Beta        4 (A1)    -11.3046
               40      Vir  Alpha      12 (B1)      0.0201
               48      Vir  Alpha      14 (B1)      0.0473
               55      Vir  Alpha      16 (B1)      0.0668
               66      Vir  Alpha      19 (B1)      0.1191
               40      Vir  Beta       12 (B1)      0.0201
               48      Vir  Beta       14 (B1)      0.0473
               55      Vir  Beta       16 (B1)      0.0668
               66      Vir  Beta       19 (B1)      0.1191


 EOMEE transition 4/B1
 Total energy = -2793.16940053 a.u.  Excitation energy = 291.5096 eV.
 R0^2 = 0.0000  R1^2 = 0.7933  R2_CCVV^2 = 0.0016  R2_COVV^2 = 0.1025  Res^2 = 4.93e-06
 Conv-d = yes

 Amplitude    Transitions between orbitals
 -0.3708       4 (A1) A                  ->    15 (B1) A                  
 -0.3708       4 (A1) B                  ->    15 (B1) B                  
 -0.2791       4 (A1) A                  ->    14 (B1) A                  
 -0.2791       4 (A1) B                  ->    14 (B1) B                  
 -0.2772       4 (A1) A                  ->    16 (B1) A                  
 -0.2772       4 (A1) B                  ->    16 (B1) B                  
  0.2312       4 (A1) A                  ->    12 (B1) A                  
  0.2312       4 (A1) B                  ->    12 (B1) B                  
 -0.1495       4 (A1) A                  ->    17 (B1) A                  
 -0.1495       4 (A1) B                  ->    17 (B1) B                  

              Summary of significant orbitals:

               Number  Type             Irrep      Energy
               6       Occ  Alpha       4 (A1)    -11.3046
               6       Occ  Beta        4 (A1)    -11.3046
               40      Vir  Alpha      12 (B1)      0.0201
               48      Vir  Alpha      14 (B1)      0.0473
               53      Vir  Alpha      15 (B1)      0.0630
               55      Vir  Alpha      16 (B1)      0.0668
               59      Vir  Alpha      17 (B1)      0.0763
               40      Vir  Beta       12 (B1)      0.0201
               48      Vir  Beta       14 (B1)      0.0473
               53      Vir  Beta       15 (B1)      0.0630
               55      Vir  Beta       16 (B1)      0.0668
               59      Vir  Beta       17 (B1)      0.0763


 EOMEE transition 5/B1
 Total energy = -2793.15857322 a.u.  Excitation energy = 291.8043 eV.
 R0^2 = 0.0000  R1^2 = 0.7932  R2_CCVV^2 = 0.0016  R2_COVV^2 = 0.1026  Res^2 = 2.25e-05
 Conv-d = yes

 Amplitude    Transitions between orbitals
 -0.4035       4 (A1) A                  ->    16 (B1) A                  
 -0.4035       4 (A1) B                  ->    16 (B1) B                  
  0.3352       4 (A1) A                  ->    17 (B1) A                  
  0.3352       4 (A1) B                  ->    17 (B1) B                  
  0.2088       4 (A1) A                  ->    13 (B1) A                  
  0.2088       4 (A1) B                  ->    13 (B1) B                  
  0.1759       4 (A1) A                  ->    18 (B1) A                  
  0.1759       4 (A1) B                  ->    18 (B1) B                  
 -0.1376       4 (A1) A                  ->    19 (B1) A                  
 -0.1376       4 (A1) B                  ->    19 (B1) B                  
  0.1081       4 (A1) A                  ->    20 (B1) A                  
  0.1081       4 (A1) B                  ->    20 (B1) B                  

              Summary of significant orbitals:

               Number  Type             Irrep      Energy
               6       Occ  Alpha       4 (A1)    -11.3046
               6       Occ  Beta        4 (A1)    -11.3046
               43      Vir  Alpha      13 (B1)      0.0291
               55      Vir  Alpha      16 (B1)      0.0668
               59      Vir  Alpha      17 (B1)      0.0763
               62      Vir  Alpha      18 (B1)      0.0908
               66      Vir  Alpha      19 (B1)      0.1191
               70      Vir  Alpha      20 (B1)      0.1649
               43      Vir  Beta       13 (B1)      0.0291
               55      Vir  Beta       16 (B1)      0.0668
[...]
   ||gamma^AB||*||gamma^BA||: 0.758428

 ------------------------------------------------------------------------------
 State A: ccsd: 0/A1
 State B: cvs_eomee_ccsd/rhfref/singlets: 6/B1
 Transition dipole moment (a.u.):
   A->B: 0.001847 (X 0.001847, Y 0.000000, Z 0.000000)
   B->A: 0.001879 (X 0.001879, Y 0.000000, Z 0.000000)
 Oscillator strength (a.u.): 0.000025
 Norm of one-particle transition density matrix:
   A->B: 0.892518;   B->A: 0.848146
   ||gamma^AB||*||gamma^BA||: 0.756985

 ------------------------------------------------------------------------------
 State A: ccsd: 0/A1
 State B: cvs_eomee_ccsd/rhfref/singlets: 7/B1
 Transition dipole moment (a.u.):
   A->B: 0.000830 (X -0.000830, Y 0.000000, Z 0.000000)
   B->A: 0.000907 (X -0.000907, Y 0.000000, Z 0.000000)
 Oscillator strength (a.u.): 0.000005
 Norm of one-particle transition density matrix:
   A->B: 0.893301;   B->A: 0.848301
   ||gamma^AB||*||gamma^BA||: 0.757788

 ------------------------------------------------------------------------------
 State A: ccsd: 0/A1
 State B: cvs_eomee_ccsd/rhfref/singlets: 8/B1
 Transition dipole moment (a.u.):
   A->B: 0.012231 (X 0.012231, Y 0.000000, Z 0.000000)
   B->A: 0.011999 (X 0.011999, Y 0.000000, Z 0.000000)
 Oscillator strength (a.u.): 0.001052
 Norm of one-particle transition density matrix:
   A->B: 0.892285;   B->A: 0.848797
   ||gamma^AB||*||gamma^BA||: 0.757369

 ------------------------------------------------------------------------------
 State A: ccsd: 0/A1
 State B: cvs_eomee_ccsd/rhfref/singlets: 9/B1
 Transition dipole moment (a.u.):
   A->B: 0.012364 (X 0.012364, Y 0.000000, Z 0.000000)
   B->A: 0.012365 (X 0.012365, Y 0.000000, Z 0.000000)
 Oscillator strength (a.u.): 0.001099
 Norm of one-particle transition density matrix:
   A->B: 0.892940;   B->A: 0.850357
   ||gamma^AB||*||gamma^BA||: 0.759317

 ------------------------------------------------------------------------------
 State A: ccsd: 0/A1
 State B: cvs_eomee_ccsd/rhfref/singlets: 10/B1
 Transition dipole moment (a.u.):
   A->B: 0.018134 (X -0.018134, Y 0.000000, Z 0.000000)
   B->A: 0.017813 (X -0.017813, Y 0.000000, Z 0.000000)
 Oscillator strength (a.u.): 0.002326
 Norm of one-particle transition density matrix:
   A->B: 0.892847;   B->A: 0.850888
   ||gamma^AB||*||gamma^BA||: 0.759712

 ------------------------------------------------------------------------------
 State A: ccsd: 0/A1
 State B: cvs_eomee_ccsd/rhfref/singlets: 1/B2
 Transition dipole moment (a.u.):
   A->B: 0.085161 (X 0.000000, Y 0.085161, Z 0.000000)
   B->A: 0.086617 (X 0.000000, Y 0.086617, Z 0.000000)
 Oscillator strength (a.u.): 0.051884
 Norm of one-particle transition density matrix:
   A->B: 0.887016;   B->A: 0.890313
   ||gamma^AB||*||gamma^BA||: 0.789722

 ------------------------------------------------------------------------------
 State A: ccsd: 0/A1
 State B: cvs_eomee_ccsd/rhfref/singlets: 2/B2
 Transition dipole moment (a.u.):
   A->B: 0.000342 (X 0.000000, Y -0.000342, Z 0.000000)
   B->A: 0.000228 (X 0.000000, Y -0.000228, Z 0.000000)
 Oscillator strength (a.u.): 0.000001
 Norm of one-particle transition density matrix:
   A->B: 0.893403;   B->A: 0.849581
   ||gamma^AB||*||gamma^BA||: 0.759018

 ------------------------------------------------------------------------------
 State A: ccsd: 0/A1
 State B: cvs_eomee_ccsd/rhfref/singlets: 3/B2
 Transition dipole moment (a.u.):
   A->B: 0.002064 (X 0.000000, Y 0.002064, Z 0.000000)
   B->A: 0.001961 (X 0.000000, Y 0.001961, Z 0.000000)
 Oscillator strength (a.u.): 0.000029
 Norm of one-particle transition density matrix:
   A->B: 0.893169;   B->A: 0.848323
   ||gamma^AB||*||gamma^BA||: 0.757696

 ------------------------------------------------------------------------------
 State A: ccsd: 0/A1
 State B: cvs_eomee_ccsd/rhfref/singlets: 4/B2
 Transition dipole moment (a.u.):
   A->B: 0.005558 (X 0.000000, Y -0.005558, Z 0.000000)
   B->A: 0.005611 (X 0.000000, Y -0.005611, Z 0.000000)
 Oscillator strength (a.u.): 0.000223
 Norm of one-particle transition density matrix:
   A->B: 0.893724;   B->A: 0.849431
   ||gamma^AB||*||gamma^BA||: 0.759157

 ------------------------------------------------------------------------------
 State A: ccsd: 0/A1
 State B: cvs_eomee_ccsd/rhfref/singlets: 5/B2
 Transition dipole moment (a.u.):
   A->B: 0.006605 (X 0.000000, Y -0.006605, Z 0.000000)
   B->A: 0.006380 (X 0.000000, Y -0.006380, Z 0.000000)
 Oscillator strength (a.u.): 0.000301
 Norm of one-particle transition density matrix:
   A->B: 0.893913;   B->A: 0.849131
   ||gamma^AB||*||gamma^BA||: 0.759049

 ------------------------------------------------------------------------------
 State A: ccsd: 0/A1
 State B: cvs_eomee_ccsd/rhfref/singlets: 6/B2
 Transition dipole moment (a.u.):
   A->B: 0.004989 (X 0.000000, Y 0.004989, Z 0.000000)
   B->A: 0.004878 (X 0.000000, Y 0.004878, Z 0.000000)
 Oscillator strength (a.u.): 0.000174
 Norm of one-particle transition density matrix:
   A->B: 0.893553;   B->A: 0.848546
   ||gamma^AB||*||gamma^BA||: 0.758220

 ------------------------------------------------------------------------------
 State A: ccsd: 0/A1
 State B: cvs_eomee_ccsd/rhfref/singlets: 7/B2
 Transition dipole moment (a.u.):
   A->B: 0.010762 (X 0.000000, Y -0.010762, Z 0.000000)
   B->A: 0.010507 (X 0.000000, Y -0.010507, Z 0.000000)
 Oscillator strength (a.u.): 0.000811
 Norm of one-particle transition density matrix:
   A->B: 0.890931;   B->A: 0.849315
   ||gamma^AB||*||gamma^BA||: 0.756681

 ------------------------------------------------------------------------------
 State A: ccsd: 0/A1
 State B: cvs_eomee_ccsd/rhfref/singlets: 8/B2
 Transition dipole moment (a.u.):
   A->B: 0.006462 (X 0.000000, Y -0.006462, Z 0.000000)
   B->A: 0.006079 (X 0.000000, Y -0.006079, Z 0.000000)
 Oscillator strength (a.u.): 0.000282
 Norm of one-particle transition density matrix:
   A->B: 0.888241;   B->A: 0.846502
   ||gamma^AB||*||gamma^BA||: 0.751898

 ------------------------------------------------------------------------------
 State A: ccsd: 0/A1
 State B: cvs_eomee_ccsd/rhfref/singlets: 9/B2
 Transition dipole moment (a.u.):
   A->B: 0.037826 (X 0.000000, Y 0.037826, Z 0.000000)
   B->A: 0.037232 (X 0.000000, Y 0.037232, Z 0.000000)
 Oscillator strength (a.u.): 0.010125
 Norm of one-particle transition density matrix:
   A->B: 0.890007;   B->A: 0.853345
   ||gamma^AB||*||gamma^BA||: 0.759483

 ------------------------------------------------------------------------------
 State A: ccsd: 0/A1
 State B: cvs_eomee_ccsd/rhfref/singlets: 10/B2
 Transition dipole moment (a.u.):
   A->B: 0.001304 (X 0.000000, Y 0.001304, Z 0.000000)
   B->A: 0.002984 (X 0.000000, Y 0.002984, Z 0.000000)
 Oscillator strength (a.u.): 0.000028
 Norm of one-particle transition density matrix:
   A->B: 0.888509;   B->A: 0.848170
   ||gamma^AB||*||gamma^BA||: 0.753607


 All requested transition properties have been computed

 Transition Properties:   CPU 459.39 s  wall 89.33 s

 Total ccman2 time:   CPU 103189.34 s  wall 13841.48 s

 
 --------------------------------------------------------------
             Orbital Energies (a.u.) and Symmetries
 --------------------------------------------------------------
 
 Alpha MOs, Restricted
 -- Occupied --                  
-490.03  -65.16  -58.52  -58.52  -58.52  -11.30  -11.26  -11.26
  1 A1    2 A1    3 A1    1 B2    1 B1    4 A1    2 B1    5 A1                 
-11.254 -11.254 -11.251  -9.840  -7.454  -7.445  -7.445  -3.193
  6 A1    3 B1    7 A1    8 A1    9 A1    4 B1    2 B2   10 A1                 
 -3.189  -3.189  -3.179  -3.179  -1.180  -1.076  -1.036  -0.977
  3 B2    5 B1   11 A1    1 A2   12 A1   13 A1    6 B1   14 A1                 
 -0.849  -0.820  -0.714  -0.648  -0.647  -0.608  -0.578  -0.535
  7 B1   15 A1   16 A1    8 B1   17 A1    9 B1   18 A1    4 B2                 
 -0.518  -0.496  -0.440  -0.417  -0.354  -0.335
 10 B1   19 A1    5 B2   11 B1    2 A2    6 B2                                 
 -- Virtual --                   
  0.013   0.020   0.020   0.026   0.029   0.030   0.037   0.040
 20 A1   12 B1   21 A1    7 B2   13 B1   22 A1   23 A1    8 B2                 
  0.043   0.047   0.048   0.054   0.055   0.059   0.063   0.065
  3 A2   14 B1   24 A1    9 B2    4 A2   25 A1   15 B1   26 A1                 
  0.067   0.067   0.069   0.069   0.076   0.082   0.087   0.091
 16 B1   10 B2   27 A1   11 B2   17 B1   28 A1   29 A1   18 B1                 
  0.100   0.101   0.101   0.119   0.123   0.140   0.156   0.165
 12 B2    5 A2   30 A1   19 B1   31 A1   32 A1   13 B2   20 B1                 
  0.174   0.177   0.179   0.196   0.198   0.203   0.207   0.214
 14 B2   33 A1    6 A2   34 A1   21 B1   35 A1   15 B2   36 A1                 
  0.223   0.225   0.229   0.229   0.231   0.241   0.245   0.247
 22 B1   16 B2   37 A1   23 B1    7 A2   38 A1   17 B2   24 B1                 
  0.252   0.254   0.263   0.278   0.289   0.293   0.314   0.337
 39 A1   25 B1   40 A1   41 A1   26 B1   27 B1   42 A1   28 B1                 
  0.342   0.353   0.377   0.413   0.416   0.433   0.442   0.487
 43 A1   18 B2   44 A1   45 A1   29 B1   30 B1   46 A1   47 A1                 
  0.494   0.511   0.512   0.606   0.615   0.619   0.645   0.647
 31 B1   32 B1   48 A1   49 A1   33 B1   19 B2   34 B1   50 A1                 
  0.716   0.729   0.736   0.737   0.741   0.747   0.766   0.774
 51 A1   35 B1   20 B2   36 B1   52 A1   21 B2    8 A2   53 A1                 
  0.787   0.787   0.805   0.824   0.829   0.866   0.888   0.897
  9 A2   37 B1   22 B2   54 A1   10 A2   23 B2   55 A1   56 A1                 
  0.924   0.925   0.935   0.939   0.960   0.985   1.012   1.031
 38 B1   24 B2   57 A1   39 B1   58 A1   59 A1   40 B1   60 A1                 
  1.059   1.069   1.097   1.098   1.112   1.126   1.177   1.203
 41 B1   61 A1   42 B1   62 A1   63 A1   43 B1   44 B1   25 B2                 
  1.203   1.231   1.286   1.293   1.308   1.345   1.374   1.472
 64 A1   11 A2   65 A1   45 B1   12 A2   26 B2   13 A2   66 A1                 
  1.525   1.614   1.725   1.776   1.785   1.817   1.823   1.831
 27 B2   67 A1   46 B1   68 A1   47 B1   69 A1   28 B2   14 A2                 
  1.881   1.905   1.907   1.947   1.990   2.006   2.042   2.102
 29 B2   70 A1   48 B1   71 A1   49 B1   30 B2   15 A2   50 B1                 
  2.147   2.217   2.218   2.219   2.235   2.248   2.272   2.320
 72 A1   51 B1   31 B2   16 A2   52 B1   73 A1   32 B2   74 A1                 
  2.345   2.352   2.366   2.375   2.443   2.594   2.614   2.645
 75 A1   53 B1   17 A2   33 B2   54 B1   34 B2   76 A1   18 A2                 
  2.676   2.742   2.796   2.796   2.849   2.929   2.972   2.991
 55 B1   77 A1   78 A1   56 B1   57 B1   79 A1   80 A1   81 A1                 
  3.009   3.022   3.031   3.039   3.069   3.161   3.186   3.193
 58 B1   82 A1   83 A1   59 B1   35 B2   84 A1   36 B2   60 B1                 
  3.193   3.280   3.286   3.319   3.472   3.530   3.563   3.756
 19 A2   37 B2   20 A2   61 B1   38 B2   85 A1   62 B1   63 B1                 
  3.780   3.899   3.921   4.018   4.139   4.383   4.438   4.501
 86 A1   64 B1   87 A1   88 A1   89 A1   65 B1   90 A1   91 A1                 
  4.515   4.558   4.609   4.637   4.789   4.960   5.114   5.261
 66 B1   21 A2   92 A1   39 B2   67 B1   93 A1   94 A1   68 B1                 
  5.439   5.446   5.759   5.778   6.183   7.393   8.256   8.348
 95 A1   69 B1   96 A1   70 B1   97 A1   98 A1   40 B2   71 B1                 
  8.448  20.615  20.685  20.706  20.824  20.851  21.124  49.625
 99 A1  100 A1  101 A1   72 B1  102 A1   73 B1  103 A1  104 A1                 
 80.185  80.258  80.280  80.379  80.404  80.610 293.938 294.033
105 A1  106 A1   74 B1  107 A1   75 B1  108 A1   41 B2   76 B1                 
294.152 322.027 322.095 322.116 322.200 322.221 322.3881028.598
109 A1  110 A1  111 A1   77 B1  112 A1   78 B1  113 A1  114 A1                 
*******1431.6581431.6781431.7481431.7671431.9068749.8358749.890
115 A1  116 A1   79 B1  117 A1   80 B1  118 A1  119 A1  120 A1                 
*******8749.9638749.9808750.091
 81 B1  121 A1   82 B1  122 A1                                                 
 
 Beta MOs, Restricted
 -- Occupied --                  
-490.03  -65.16  -58.52  -58.52  -58.52  -11.30  -11.26  -11.26
  1 A1    2 A1    3 A1    1 B2    1 B1    4 A1    2 B1    5 A1                 
-11.254 -11.254 -11.251  -9.840  -7.454  -7.445  -7.445  -3.193
  6 A1    3 B1    7 A1    8 A1    9 A1    4 B1    2 B2   10 A1                 
 -3.189  -3.189  -3.179  -3.179  -1.180  -1.076  -1.036  -0.977
  3 B2    5 B1   11 A1    1 A2   12 A1   13 A1    6 B1   14 A1                 
 -0.849  -0.820  -0.714  -0.648  -0.647  -0.608  -0.578  -0.535
  7 B1   15 A1   16 A1    8 B1   17 A1    9 B1   18 A1    4 B2                 
 -0.518  -0.496  -0.440  -0.417  -0.354  -0.335
 10 B1   19 A1    5 B2   11 B1    2 A2    6 B2                                 
 -- Virtual --                   
  0.013   0.020   0.020   0.026   0.029   0.030   0.037   0.040
 20 A1   12 B1   21 A1    7 B2   13 B1   22 A1   23 A1    8 B2                 
  0.043   0.047   0.048   0.054   0.055   0.059   0.063   0.065
  3 A2   14 B1   24 A1    9 B2    4 A2   25 A1   15 B1   26 A1                 
  0.067   0.067   0.069   0.069   0.076   0.082   0.087   0.091
 16 B1   10 B2   27 A1   11 B2   17 B1   28 A1   29 A1   18 B1                 
  0.100   0.101   0.101   0.119   0.123   0.140   0.156   0.165
 12 B2    5 A2   30 A1   19 B1   31 A1   32 A1   13 B2   20 B1                 
  0.174   0.177   0.179   0.196   0.198   0.203   0.207   0.214
 14 B2   33 A1    6 A2   34 A1   21 B1   35 A1   15 B2   36 A1                 
  0.223   0.225   0.229   0.229   0.231   0.241   0.245   0.247
 22 B1   16 B2   37 A1   23 B1    7 A2   38 A1   17 B2   24 B1                 
  0.252   0.254   0.263   0.278   0.289   0.293   0.314   0.337
 39 A1   25 B1   40 A1   41 A1   26 B1   27 B1   42 A1   28 B1                 
  0.342   0.353   0.377   0.413   0.416   0.433   0.442   0.487
 43 A1   18 B2   44 A1   45 A1   29 B1   30 B1   46 A1   47 A1                 
  0.494   0.511   0.512   0.606   0.615   0.619   0.645   0.647
 31 B1   32 B1   48 A1   49 A1   33 B1   19 B2   34 B1   50 A1                 
  0.716   0.729   0.736   0.737   0.741   0.747   0.766   0.774
 51 A1   35 B1   20 B2   36 B1   52 A1   21 B2    8 A2   53 A1                 
  0.787   0.787   0.805   0.824   0.829   0.866   0.888   0.897
  9 A2   37 B1   22 B2   54 A1   10 A2   23 B2   55 A1   56 A1                 
  0.924   0.925   0.935   0.939   0.960   0.985   1.012   1.031
 38 B1   24 B2   57 A1   39 B1   58 A1   59 A1   40 B1   60 A1                 
  1.059   1.069   1.097   1.098   1.112   1.126   1.177   1.203
 41 B1   61 A1   42 B1   62 A1   63 A1   43 B1   44 B1   25 B2                 
  1.203   1.231   1.286   1.293   1.308   1.345   1.374   1.472
 64 A1   11 A2   65 A1   45 B1   12 A2   26 B2   13 A2   66 A1                 
  1.525   1.614   1.725   1.776   1.785   1.817   1.823   1.831
 27 B2   67 A1   46 B1   68 A1   47 B1   69 A1   28 B2   14 A2                 
  1.881   1.905   1.907   1.947   1.990   2.006   2.042   2.102
 29 B2   70 A1   48 B1   71 A1   49 B1   30 B2   15 A2   50 B1                 
  2.147   2.217   2.218   2.219   2.235   2.248   2.272   2.320
 72 A1   51 B1   31 B2   16 A2   52 B1   73 A1   32 B2   74 A1                 
  2.345   2.352   2.366   2.375   2.443   2.594   2.614   2.645
 75 A1   53 B1   17 A2   33 B2   54 B1   34 B2   76 A1   18 A2                 
  2.676   2.742   2.796   2.796   2.849   2.929   2.972   2.991
 55 B1   77 A1   78 A1   56 B1   57 B1   79 A1   80 A1   81 A1                 
  3.009   3.022   3.031   3.039   3.069   3.161   3.186   3.193
 58 B1   82 A1   83 A1   59 B1   35 B2   84 A1   36 B2   60 B1                 
  3.193   3.280   3.286   3.319   3.472   3.530   3.563   3.756
 19 A2   37 B2   20 A2   61 B1   38 B2   85 A1   62 B1   63 B1                 
  3.780   3.899   3.921   4.018   4.139   4.383   4.438   4.501
 86 A1   64 B1   87 A1   88 A1   89 A1   65 B1   90 A1   91 A1                 
  4.515   4.558   4.609   4.637   4.789   4.960   5.114   5.261
 66 B1   21 A2   92 A1   39 B2   67 B1   93 A1   94 A1   68 B1                 
  5.439   5.446   5.759   5.778   6.183   7.393   8.256   8.348
 95 A1   69 B1   96 A1   70 B1   97 A1   98 A1   40 B2   71 B1                 
  8.448  20.615  20.685  20.706  20.824  20.851  21.124  49.625
 99 A1  100 A1  101 A1   72 B1  102 A1   73 B1  103 A1  104 A1                 
 80.185  80.258  80.280  80.379  80.404  80.610 293.938 294.033
105 A1  106 A1   74 B1  107 A1   75 B1  108 A1   41 B2   76 B1                 
294.152 322.027 322.095 322.116 322.200 322.221 322.3881028.598
109 A1  110 A1  111 A1   77 B1  112 A1   78 B1  113 A1  114 A1                 
*******1431.6581431.6781431.7481431.7671431.9068749.8358749.890
115 A1  116 A1   79 B1  117 A1   80 B1  118 A1  119 A1  120 A1                 
*******8749.9638749.9808750.091
 81 B1  121 A1   82 B1  122 A1                                                 
 --------------------------------------------------------------
 
          Ground-State Mulliken Net Atomic Charges

     Atom                 Charge (a.u.)
  ----------------------------------------
      1 H                     0.259552
      2 C                    -0.225772
      3 C                    -0.163465
      4 H                     0.227419
      5 C                    -0.415497
      6 H                     0.187829
      7 C                    -0.163465
      8 H                     0.227419
      9 C                    -0.225772
     10 H                     0.259552
     11 C                     0.385991
     12 Br                   -0.353791
  ----------------------------------------
  Sum of atomic charges =    -0.000000

 -----------------------------------------------------------------
                    Cartesian Multipole Moments
 -----------------------------------------------------------------
    Charge (ESU x 10^10)
                 0.0000
    Dipole Moment (Debye)
         X      -0.0000      Y      -0.0000      Z      -2.0243
       Tot       2.0243
    Quadrupole Moments (Debye-Ang)
        XX     -48.3716     XY      -0.0000     YY     -58.7598
        XZ      -0.0000     YZ       0.0000     ZZ     -49.5428
    Octopole Moments (Debye-Ang^2)
       XXX      -0.0000    XXY      -0.0000    XYY      -0.0000
       YYY       0.0000    XXZ      11.2082    XYZ       0.0000
       YYZ      26.3115    XZZ      -0.0000    YZZ      -0.0000
       ZZZ      41.1621
    Hexadecapole Moments (Debye-Ang^3)
      XXXX    -283.2336   XXXY      -0.0000   XXYY     -72.3334
      XYYY      -0.0000   YYYY     -72.6692   XXXZ      -0.0000
      XXYZ       0.0000   XYYZ      -0.0000   YYYZ      -0.0000
      XXZZ    -223.8748   XYZZ      -0.0000   YYZZ    -222.8924
      XZZZ      -0.0000   YZZZ       0.0000   ZZZZ   -1014.6946
 -----------------------------------------------------------------
Archival summary:
1\1\n-62-24-2\SP\ProcedureUnspecified\BasisUnspecified\r165\malop\MonOct2216:04:522018MonOct2216:04:522018\0\\#,ProcedureUnspecified,BasisUnspecified,\\0,1\Br\C,1,1.884\C,2,1.3922,1,119.37\H,3,1.0802,2,120.072,1,-0,0\C,2,1.3922,1,119.37,3,-180,0\H,5,1.0802,2,120.072,1,-0,0\C,3,1.39311,2,119.031,1,-180,0\H,7,1.08133,3,119.353,2,180,0\C,5,1.39311,2,119.031,1,-180,0\H,9,1.08133,5,119.353,2,180,0\C,7,1.39319,3,120.463,2,-0,0\H,11,1.08081,7,120.124,3,-180,0\\HF=-2802.54028\\@

 Total job time:  13939.71s(wall), 103686.38s(cpu) 
 Mon Oct 22 16:04:52 2018

        *************************************************************
        *                                                           *
        *  Thank you very much for using Q-Chem.  Have a nice day.  *
        *                                                           *
        *************************************************************


