Q-Chem Developer Version!
                  Welcome to Q-Chem
     A Quantum Leap Into The Future Of Chemistry


 Q-Chem 5.1, Q-Chem, Inc., Pleasanton, CA (2018)

 Yihan Shao,  Zhengting Gan,  E. Epifanovsky,  A. T. B. Gilbert,  M. Wormit,  
 J. Kussmann,  A. W. Lange,  A. Behn,  Jia Deng,  Xintian Feng,  D. Ghosh,  
 M. Goldey,  P. R. Horn,  L. D. Jacobson,  I. Kaliman,  T. Kus,  A. Landau,  
 Jie Liu,  E. I. Proynov,  R. M. Richard,  R. P. Steele,  E. J. Sundstrom,  
 H. L. Woodcock III,  P. M. Zimmerman,  D. Zuev,  B. Albrecht,  E. Alguire,  
 S. A. Baeppler,  D. Barton,  Z. Benda,  Y. A. Bernard,  E. J. Berquist,  
 K. B. Bravaya,  H. Burton,  D. Casanova,  Chun-Min Chang,  Yunqing Chen,  
 A. Chien,  K. D. Closser,  M. P. Coons,  S. Coriani,  S. Dasgupta,  
 A. L. Dempwolff,  M. Diedenhofen,  Hainam Do,  R. G. Edgar,  Po-Tung Fang,  
 S. Faraji,  S. Fatehi,  Qingguo Feng,  K. D. Fenk,  J. Fosso-Tande,  
 Qinghui Ge,  A. Ghysels,  G. Gidofalvi,  J. Gomes,  J. Gonthier,  A. Gunina,  
 D. Hait,  M. W. D. Hanson-Heine,  P. H. P. Harbach,  A. W. Hauser,  
 J. E. Herr,  E. G. Hohenstein,  Z. C. Holden,  Kerwin Hui,  B. C. Huynh,  
 T.-C. Jagau,  Hyunjun Ji,  B. Kaduk,  K. Khistyaev,  Jaehoon Kim,  
 P. Klunzinger,  K. Koh,  D. Kosenkov,  L. Koulias,  T. Kowalczyk,  
 C. M. Krauter,  A. Kunitsa,  Ka Un Lao,  A. Laurent,  K. V. Lawler,  
 Joonho Lee,  D. Lefrancois,  S. Lehtola,  D. S. Levine,  Yi-Pei Li,  
 You-Sheng Lin,  Fenglai Liu,  E. Livshits,  A. Luenser,  P. Manohar,  
 E. Mansoor,  S. F. Manzer,  Shan-Ping Mao,  Yuezhi Mao,  N. Mardirossian,  
 A. V. Marenich,  T. Markovich,  L. A. Martinez-Martinez,  S. A. Maurer,  
 N. J. Mayhall,  S. C. McKenzie,  J.-M. Mewes,  A. F. Morrison,  
 J. W. Mullinax,  K. Nanda,  T. S. Nguyen-Beck,  R. Olivares-Amaya,  
 J. A. Parkhill,  T. M. Perrine,  F. Plasser,  P. Pokhilko,  S. Prager,  
 A. Prociuk,  E. Ramos,  D. R. Rehn,  F. Rob,  M. Schneider,  N. Sergueev,  
 S. M. Sharada,  S. Sharma,  D. W. Small,  T. Stauch,  T. Stein,  
 Yu-Chuan Su,  A. J. W. Thom,  A. Tkatchenko,  T. Tsuchimochi,  N. M. Tubman,  
 L. Vogt,  M. L. Vidal,  O. Vydrov,  M. A. Watson,  J. Wenzel,  
 M. de Wergifosse,  T. A. Wesolowski,  A. White,  J. Witte,  A. Yamada,  
 Jun Yang,  K. Yao,  S. Yeganeh,  S. R. Yost,  Zhi-Qiang You,  A. Zech,  
 Igor Ying Zhang,  Xing Zhang,  Yan Zhao,  Ying Zhu,  B. R. Brooks,  
 G. K. L. Chan,  C. J. Cramer,  M. S. Gordon,  W. J. Hehre,  A. Klamt,  
 M. W. Schmidt,  C. D. Sherrill,  D. G. Truhlar,  A. Aspuru-Guzik,  R. Baer,  
 A. T. Bell,  N. A. Besley,  Jeng-Da Chai,  A. E. DePrince, III,  
 R. A. DiStasio Jr.,  A. Dreuw,  B. D. Dunietz,  T. R. Furlani,  
 Chao-Ping Hsu,  Yousung Jung,  Jing Kong,  D. S. Lambrecht,  WanZhen Liang,  
 C. Ochsenfeld,  V. A. Rassolov,  L. V. Slipchenko,  J. E. Subotnik,  
 T. Van Voorhis,  J. M. Herbert,  A. I. Krylov,  P. M. W. Gill,  M. Head-Gordon

 Contributors to earlier versions of Q-Chem not listed above: 
 R. D. Adamson,  B. Austin,  J. Baker,  G. J. O. Beran,  K. Brandhorst,  
 S. T. Brown,  E. F. C. Byrd,  A. K. Chakraborty,  C.-L. Cheng,  
 Siu Hung Chien,  D. M. Chipman,  D. L. Crittenden,  H. Dachsel,  
 R. J. Doerksen,  A. D. Dutoi,  L. Fusti-Molnar,  W. A. Goddard III,  
 A. Golubeva-Zadorozhnaya,  S. R. Gwaltney,  G. Hawkins,  A. Heyden,  
 S. Hirata,  G. Kedziora,  F. J. Keil,  C. Kelley,  Jihan Kim,  R. A. King,  
 R. Z. Khaliullin,  P. P. Korambath,  W. Kurlancheek,  A. M. Lee,  M. S. Lee,  
 S. V. Levchenko,  Ching Yeh Lin,  D. Liotard,  R. C. Lochan,  I. Lotan,  
 P. E. Maslen,  N. Nair,  D. P. O'Neill,  D. Neuhauser,  E. Neuscamman,  
 C. M. Oana,  R. Olson,  B. Peters,  R. Peverati,  P. A. Pieniazek,  
 Y. M. Rhee,  J. Ritchie,  M. A. Rohrdanz,  E. Rosta,  N. J. Russ,  
 H. F. Schaefer III,  N. E. Schultz,  N. Shenvi,  A. C. Simmonett,  A. Sodt,  
 D. Stuck,  K. S. Thanthiriwatte,  V. Vanovschi,  Tao Wang,  A. Warshel,  
 C. F. Williams,  Q. Wu,  X. Xu,  W. Zhang

 Please cite Q-Chem as follows:
 Y. Shao et al., Mol. Phys. 113, 184-215 (2015)
 DOI: 10.1080/00268976.2014.952696

 Q-Chem 5.1.1 for Intel X86 EM64T Linux

 Parts of Q-Chem use Armadillo 8.300.2 (Tropical Shenanigans).
 http://arma.sourceforge.net/

 Q-Chem begins on Sun Dec 30 21:15:46 2018  


Host: 0

     Scratch files written to /work1/malop/qc_7597763.hnode2//
Input Ideriv = 1
Curr. Ideriv = -1
Max.  Ideriv = 1

Checking the input file for inconsistencies... 	...done.

--------------------------------------------------------------
User input:
--------------------------------------------------------------
$comment
Optimized Br-Bz
TR-NEXAFS
basis = 6-311(2+,+)G** uncontracted on C 
$end

$molecule
0 1
H      -2.1434404908     0.0000000000    -0.2235906397
C      -1.2132672529    -0.0000000000    -0.7727863601
C      -1.2050294832    -0.0000000000    -2.1658702173
H      -2.1443854307    -0.0000000000    -2.7014917948
C       0.0000000000    -0.0000000000    -2.8650776091
H       0.0000000000    -0.0000000000    -3.9458877158
C       1.2050294832    -0.0000000000    -2.1658702173
H       2.1443854307    -0.0000000000    -2.7014917948
C       1.2132672529    -0.0000000000    -0.7727863601
H       2.1434404908    -0.0000000000    -0.2235906397
C      -0.0000000000    -0.0000000000    -0.0899907575
Br     -0.0000000000     0.0000000000     1.7940097632
$end

$rem
   JOB_TYPE  =  SP
   BASIS  =  general
   METHOD  =  EOM-CCSD
   EE_STATES = [3,0,3,3]
   CVS_EE_STATES = [0,5,5,5]
   EOM_NGUESS_SINGLES = 10
   eom_preconv_singles = true
   n_frozen_core = 7
   cc_trans_prop = true
   use_libqints = 1   !use new int library (will be def in trunk)
   cc_memory = 100000
   !EOM_DAVIDSON_MAX_ITER 200
   EOM_DAVIDSON_MAXVECTORS = 1000
   eom_davidson_convergence = 4
   thresh = 14   !this already should be default, but just in case
   !scf_convergence = 12
   !cc_convergence = 12
   !basis_lin_dep_thresh = 8 
$end

$basis
H    0
6-311(2+,+)G** 
****
C    0
S    1    1.000000
   4.56324000E+03    1.96665000E-03
S    1    1.000000
   6.82024000E+02    1.52306000E-02
S    1    1.000000
   1.54973000E+02    7.61269000E-02
S    1    1.000000
   4.44553000E+01    2.60801000E-01
S    1    1.000000
   1.30290000E+01    6.16462000E-01
S    1    1.000000
   1.82773000E+00    2.21006000E-01
SP   3    1.000000
   2.09642000E+01    1.14660000E-01   4.02487000E-02
   4.80331000E+00    9.19999000E-01   2.37594000E-01
   1.45933000E+00   -3.03068000E-03   8.15854000E-01
SP   1    1.000000
   4.83456000E-01    1.00000000E+00   1.00000000E+00
SP   1    1.000000
   1.45585000E-01    1.00000000E+00   1.00000000E+00
SP   1    1.000000
   4.38000000E-02    1.00000000E+00   1.00000000E+00
SP   1    1.000000
   1.31927711E-02    1.00000000E+00   1.00000000E+00
D    1    1.000000
   6.26000000E-01    1.00000000E+00
****
Br   0
6-311(2+,+)G**
****
$end

$trans_prop
state_list
ee_singlets 1 1
ee_singlets 3 1
ee_singlets 4 1
cvs_ee_singlets 2 1
cvs_ee_singlets 2 2
cvs_ee_singlets 2 3
cvs_ee_singlets 2 4
cvs_ee_singlets 2 5
cvs_ee_singlets 3 1
cvs_ee_singlets 3 2
cvs_ee_singlets 3 3
cvs_ee_singlets 3 4
cvs_ee_singlets 3 5
cvs_ee_singlets 4 1
cvs_ee_singlets 4 2
cvs_ee_singlets 4 3
cvs_ee_singlets 4 4
cvs_ee_singlets 4 5
end_list
state_pair_list
1 4
1 5
1 6
1 7
1 8
1 9
1 10
1 11
1 12
1 13
1 14
1 15
1 16
1 17
1 18
2 4
2 5
2 6
2 7
2 8
2 9
2 10
2 11
2 12
2 13
2 14
2 15
2 16
2 17
2 18
3 4
3 5
3 6
3 7
3 8
3 9
3 10
3 11
3 12
3 13
3 14
3 15
3 16
3 17
3 18
end_pairs
calc default
$end

--------------------------------------------------------------

 Q-Chem warning in module forms1/BasisType.C, line 1761:

 Setting pure/cartesian flag to 2111 for general basis


 Requested basis set is non-standard
 There are 117 shells and 273 basis functions
MEM_TOTAL is adjusted to CC_MEMORY + MEM_STATIC!
 Total memory of 100192MB is distributed as follows: 
   QALLOC including MEM_STATIC uses 192MB
   MEM_STATIC is set to 192MB
   CCMAN JOB total memory use is  100000MB
 Warning: actual memory use might exceed 100192MB

 Total QAlloc Memory Limit    192 MB
 Mega-Array Size       188 MB
 MEM_STATIC part       192 MB
 ----------------------------------------------------------------
             Standard Nuclear Orientation (Angstroms)
    I     Atom           X                Y                Z
 ----------------------------------------------------------------
    1      H      -2.1434404908     0.0000000000    -0.2235906397
    2      C      -1.2132672529    -0.0000000000    -0.7727863601
    3      C      -1.2050294832    -0.0000000000    -2.1658702173
    4      H      -2.1443854307    -0.0000000000    -2.7014917948
    5      C       0.0000000000    -0.0000000000    -2.8650776091
    6      H       0.0000000000    -0.0000000000    -3.9458877158
    7      C       1.2050294832    -0.0000000000    -2.1658702173
    8      H       2.1443854307    -0.0000000000    -2.7014917948
    9      C       1.2132672529    -0.0000000000    -0.7727863601
   10      H       2.1434404908    -0.0000000000    -0.2235906397
   11      C       0.0000000000    -0.0000000000    -0.0899907575
   12      Br     -0.0000000000     0.0000000000     1.7940097632
 ----------------------------------------------------------------
 Molecular Point Group                 C2v   NOp =  4
 Largest Abelian Subgroup              C2v   NOp =  4
 Nuclear Repulsion Energy =   432.5066877038 hartrees
 There are       38 alpha and       38 beta electrons

                       Distance Matrix (Angstroms)
             H (  1)   C (  2)   C (  3)   H (  4)   C (  5)   H (  6)
   C (  2)  1.080203
   C (  3)  2.157096  1.393108
   H (  4)  2.477901  2.141702  1.081333
   C (  5)  3.401733  2.418615  1.393193  2.150616
   H (  6)  4.295327  3.397144  2.149548  2.479296  1.080810
   C (  7)  3.871008  2.790850  2.410059  3.391972  1.393193  2.149548
   H (  8)  4.952317  3.872175  3.391972  4.288771  2.150616  2.479296
   C (  9)  3.401338  2.426535  2.790850  3.872175  2.418615  3.397144
   H ( 10)  4.286881  3.401338  3.871008  4.952317  3.401733  4.295327
   C ( 11)  2.147600  1.392202  2.400286  3.379101  2.775087  3.855897
   Br( 12)  2.943645  2.839095  4.139172  4.980755  4.659087  5.739897
             C (  7)   H (  8)   C (  9)   H ( 10)   C ( 11)
   H (  8)  1.081333
   C (  9)  1.393108  2.141702
   H ( 10)  2.157096  2.477901  1.080203
   C ( 11)  2.400286  3.379101  1.392202  2.147600
   Br( 12)  4.139172  4.980755  2.839095  2.943645  1.884001

 A cutoff of  1.0D-14 yielded   5718 shell pairs
 There are     34880 function pairs (     37255 Cartesian)

 -------------------------------------------------------
 OpenMP Integral Computing Module                       
 Release: version 1.0, May 2013, Q-Chem Inc. Pittsburgh 
 -------------------------------------------------------
 Integral Job Info:
 Integral job number is                      11
 Integral operator is                         1
 short-range coefficients                     0
 long-range coefficients              100000000
 Omega coefficients                           0
 if combine SR and LR in K                    0
 Integral screening is                        0
 Integral computing path is                   2
 max size of driver memory is            800000
 size of driver memory is                593474
 size of scratch memory is             29623520
 max col of scratch BK array               1296
 max len of scratch array in speh3          155
 max len of scratch index in speh4           18
 max int batch size is                      520
 min int batch size is                       52
 fixed nKL is                                45
 max L of basis functions is                  2
 order of int derivative is                   0
 number of shells is                        117
 number of basis is                         282
 number of cartesian basis is               282
 number of contracted shell pairs          5718
 number of primitive shell pairs           8629
 maxK2 (contraction) of shell pair           36
 max number of K2 of shell pair               1
 max number of CS2 of shell pair           1561
 max number of PS2 of shell pair           1561
 mem total for path MDJ                  548620
 -------------------------------------------------------
 Smallest overlap matrix eigenvalue = 9.84E-09
 Linear dependence detected in AO basis
 Tighter screening thresholds may be required for diffuse basis sets
 Use S2THRESH > 14 and THRESH = 14 in case of SCF convergence issues
 Number of orthogonalized atomic orbitals = 266
 Maximum deviation from orthogonality = 3.218E-11

 Scale SEOQF with 1.000000e-01/1.000000e-01/1.000000e-01

 Standard Electronic Orientation quadrupole field applied
 Nucleus-field energy     =    -0.0000000255 hartrees
 Guess MOs from core Hamiltonian diagonalization

 -----------------------------------------------------------------------
  General SCF calculation program by
  Eric Jon Sundstrom, Paul Horn, Yuezhi Mao, Dmitri Zuev, Alec White,
  David Stuck, Shaama M.S., Shane Yost, Joonho Lee, David Small,
  Daniel Levine, Susi Lehtola, Hugh Burton, Evgeny Epifanovsky
 -----------------------------------------------------------------------
 Hartree-Fock
 A restricted SCF calculation will be
 performed using DIIS
 SCF converges when DIIS error is below 1.0e-08
 ---------------------------------------
  Cycle       Energy         DIIS error
 ---------------------------------------
    1   -2383.9869314788      5.54e-01  
    2   -2189.8943844964      1.75e-01  
    3   -2232.7645986607      1.68e-01  
    4   -2744.6587078923      7.21e-02  
    5   -2754.5915806927      4.90e-02  
    6   -2780.8085580023      4.43e-02  
    7   -2798.4380702126      1.73e-02  
    8   -2802.0517031596      7.65e-03  
    9   -2802.5009432868      2.18e-03  
   10   -2802.5339509471      6.89e-04  
   11   -2802.5387879835      2.68e-04  
   12   -2802.5400377014      8.78e-05  
   13   -2802.5401761100      3.99e-05  
   14   -2802.5402470095      2.35e-05  
   15   -2802.5402732469      7.56e-06  
   16   -2802.5402759193      2.98e-06  
   17   -2802.5402761938      6.55e-07  
   18   -2802.5402762018      1.60e-07  
   19   -2802.5402762024      4.27e-08  
   20   -2802.5402762024      9.43e-09  Convergence criterion met
 ---------------------------------------
 SCF time:   CPU 570.74s  wall 59.00s 
 SCF   energy in the final basis set =    -2802.5402762024
 Total energy in the final basis set =    -2802.5402762024


 ------------------------------------------------------------------------------

   CCMAN2: suite of methods based on coupled cluster
           and equation of motion theories.

   Components:
   * libvmm-1.3-trunk
     by Evgeny Epifanovsky, Ilya Kaliman.
   * libtensor-2.5-trunk
     by Evgeny Epifanovsky, Michael Wormit, Dmitry Zuev, Sam Manzer, 
        Ilya Kaliman.
   * libcc-2.5-trunk
     by Evgeny Epifanovsky, Arik Landau, Tomasz Kus, Kirill Khistyaev, 
        Dmitry Zuev, Prashant Manohar, Xintian Feng, Anna Krylov, 
        Matthew Goldey, Alec White, Thomas Jagau, Kaushik Nanda, 
        Anastasia Gunina, Alexander Kunitsa, Joonho Lee.

   CCMAN original authors:
   Anna I. Krylov, C. David Sherrill, Steven R. Gwaltney,
   Edward F. C. Byrd (2000)
   Sergey V. Levchenko, Lyudmila V. Slipchenko, Tao Wang,
   Ana-Maria C. Cristian (2003)
   Piotr A. Pieniazek, C. Melania Oana, Evgeny Epifanovsky (2007)
   Prashant Manohar (2009)

 ------------------------------------------------------------------------------


 Allocating and initializing 100000MB of RAM...
 Calculation will run on 10 cores.


 Alpha MOs, Restricted
 -- Occupied --                  
-490.03  -65.16  -58.52  -58.52  -58.52  -11.30  -11.26  -11.26
  1 A1    2 A1    3 A1    1 B2    1 B1    4 A1    2 B1    5 A1                 
-11.254 -11.254 -11.251  -9.840  -7.454  -7.445  -7.445  -3.193
  6 A1    3 B1    7 A1    8 A1    9 A1    4 B1    2 B2   10 A1                 
 -3.189  -3.189  -3.179  -3.179  -1.180  -1.076  -1.036  -0.977
  3 B2    5 B1   11 A1    1 A2   12 A1   13 A1    6 B1   14 A1                 
 -0.849  -0.820  -0.714  -0.648  -0.647  -0.608  -0.578  -0.535
  7 B1   15 A1   16 A1    8 B1   17 A1    9 B1   18 A1    4 B2                 
 -0.518  -0.496  -0.440  -0.417  -0.354  -0.335
 10 B1   19 A1    5 B2   11 B1    2 A2    6 B2                                 
 -- Virtual --                   
  0.013   0.020   0.020   0.026   0.029   0.030   0.037   0.040
 20 A1   12 B1   21 A1    7 B2   13 B1   22 A1   23 A1    8 B2                 
  0.043   0.047   0.048   0.054   0.055   0.059   0.063   0.065
  3 A2   14 B1   24 A1    9 B2    4 A2   25 A1   15 B1   26 A1                 
  0.067   0.067   0.069   0.069   0.076   0.082   0.087   0.091
 16 B1   10 B2   27 A1   11 B2   17 B1   28 A1   29 A1   18 B1                 
  0.100   0.101   0.101   0.119   0.123   0.140   0.156   0.165
 12 B2    5 A2   30 A1   19 B1   31 A1   32 A1   13 B2   20 B1                 
  0.174   0.177   0.179   0.196   0.198   0.203   0.207   0.214
 14 B2   33 A1    6 A2   34 A1   21 B1   35 A1   15 B2   36 A1                 
  0.223   0.225   0.229   0.229   0.231   0.241   0.245   0.247
 22 B1   16 B2   37 A1   23 B1    7 A2   38 A1   17 B2   24 B1                 
  0.252   0.254   0.263   0.278   0.289   0.293   0.314   0.337
 39 A1   25 B1   40 A1   41 A1   26 B1   27 B1   42 A1   28 B1                 
  0.342   0.353   0.377   0.413   0.416   0.433   0.442   0.487
 43 A1   18 B2   44 A1   45 A1   29 B1   30 B1   46 A1   47 A1                 
  0.494   0.511   0.512   0.606   0.615   0.619   0.645   0.647
 31 B1   32 B1   48 A1   49 A1   33 B1   19 B2   34 B1   50 A1                 
  0.716   0.729   0.736   0.737   0.741   0.747   0.766   0.774
 51 A1   35 B1   20 B2   36 B1   52 A1   21 B2    8 A2   53 A1                 
  0.787   0.787   0.805   0.824   0.829   0.866   0.888   0.897
  9 A2   37 B1   22 B2   54 A1   10 A2   23 B2   55 A1   56 A1                 
  0.924   0.925   0.935   0.939   0.960   0.985   1.012   1.031
 38 B1   24 B2   57 A1   39 B1   58 A1   59 A1   40 B1   60 A1                 
  1.059   1.069   1.097   1.098   1.112   1.126   1.177   1.203
 41 B1   61 A1   42 B1   62 A1   63 A1   43 B1   44 B1   25 B2                 
  1.203   1.231   1.286   1.293   1.308   1.345   1.374   1.472
 64 A1   11 A2   65 A1   45 B1   12 A2   26 B2   13 A2   66 A1                 
  1.525   1.614   1.725   1.776   1.785   1.817   1.823   1.831
 27 B2   67 A1   46 B1   68 A1   47 B1   69 A1   28 B2   14 A2                 
  1.881   1.905   1.907   1.947   1.990   2.006   2.042   2.102
 29 B2   70 A1   48 B1   71 A1   49 B1   30 B2   15 A2   50 B1                 
  2.147   2.217   2.218   2.219   2.235   2.248   2.272   2.320
 72 A1   51 B1   31 B2   16 A2   52 B1   73 A1   32 B2   74 A1                 
  2.345   2.352   2.366   2.375   2.443   2.594   2.614   2.645
 75 A1   53 B1   17 A2   33 B2   54 B1   34 B2   76 A1   18 A2                 
  2.676   2.742   2.796   2.796   2.849   2.929   2.972   2.991
 55 B1   77 A1   78 A1   56 B1   57 B1   79 A1   80 A1   81 A1                 
  3.009   3.022   3.031   3.039   3.069   3.161   3.186   3.193
 58 B1   82 A1   83 A1   59 B1   35 B2   84 A1   36 B2   60 B1                 
  3.193   3.280   3.286   3.319   3.472   3.530   3.563   3.756
 19 A2   37 B2   20 A2   61 B1   38 B2   85 A1   62 B1   63 B1                 
  3.780   3.899   3.921   4.018   4.139   4.383   4.438   4.501
 86 A1   64 B1   87 A1   88 A1   89 A1   65 B1   90 A1   91 A1                 
  4.515   4.558   4.609   4.637   4.789   4.960   5.114   5.261
 66 B1   21 A2   92 A1   39 B2   67 B1   93 A1   94 A1   68 B1                 
  5.439   5.446   5.759   5.778   6.183   7.393   8.256   8.348
 95 A1   69 B1   96 A1   70 B1   97 A1   98 A1   40 B2   71 B1                 
  8.448  20.615  20.685  20.706  20.824  20.851  21.124  49.625
 99 A1  100 A1  101 A1   72 B1  102 A1   73 B1  103 A1  104 A1                 
 80.185  80.258  80.280  80.379  80.404  80.610 293.938 294.033
105 A1  106 A1   74 B1  107 A1   75 B1  108 A1   41 B2   76 B1                 
294.152 322.027 322.095 322.116 322.200 322.221 322.3881028.598
109 A1  110 A1  111 A1   77 B1  112 A1   78 B1  113 A1  114 A1                 
*******1431.6581431.6781431.7481431.7671431.9068749.8358749.890
115 A1  116 A1   79 B1  117 A1   80 B1  118 A1  119 A1  120 A1                 
*******8749.9638749.9808750.091
 81 B1  121 A1   82 B1  122 A1                                                 

 Beta MOs, Restricted
 -- Occupied --                  
-490.03  -65.16  -58.52  -58.52  -58.52  -11.30  -11.26  -11.26
  1 A1    2 A1    3 A1    1 B2    1 B1    4 A1    2 B1    5 A1                 
-11.254 -11.254 -11.251  -9.840  -7.454  -7.445  -7.445  -3.193
  6 A1    3 B1    7 A1    8 A1    9 A1    4 B1    2 B2   10 A1                 
 -3.189  -3.189  -3.179  -3.179  -1.180  -1.076  -1.036  -0.977
  3 B2    5 B1   11 A1    1 A2   12 A1   13 A1    6 B1   14 A1                 
 -0.849  -0.820  -0.714  -0.648  -0.647  -0.608  -0.578  -0.535
  7 B1   15 A1   16 A1    8 B1   17 A1    9 B1   18 A1    4 B2                 
 -0.518  -0.496  -0.440  -0.417  -0.354  -0.335
 10 B1   19 A1    5 B2   11 B1    2 A2    6 B2                                 
 -- Virtual --                   
  0.013   0.020   0.020   0.026   0.029   0.030   0.037   0.040
 20 A1   12 B1   21 A1    7 B2   13 B1   22 A1   23 A1    8 B2                 
  0.043   0.047   0.048   0.054   0.055   0.059   0.063   0.065
  3 A2   14 B1   24 A1    9 B2    4 A2   25 A1   15 B1   26 A1                 
  0.067   0.067   0.069   0.069   0.076   0.082   0.087   0.091
 16 B1   10 B2   27 A1   11 B2   17 B1   28 A1   29 A1   18 B1                 
  0.100   0.101   0.101   0.119   0.123   0.140   0.156   0.165
 12 B2    5 A2   30 A1   19 B1   31 A1   32 A1   13 B2   20 B1                 
  0.174   0.177   0.179   0.196   0.198   0.203   0.207   0.214
 14 B2   33 A1    6 A2   34 A1   21 B1   35 A1   15 B2   36 A1                 
  0.223   0.225   0.229   0.229   0.231   0.241   0.245   0.247
 22 B1   16 B2   37 A1   23 B1    7 A2   38 A1   17 B2   24 B1                 
  0.252   0.254   0.263   0.278   0.289   0.293   0.314   0.337
 39 A1   25 B1   40 A1   41 A1   26 B1   27 B1   42 A1   28 B1                 
  0.342   0.353   0.377   0.413   0.416   0.433   0.442   0.487
 43 A1   18 B2   44 A1   45 A1   29 B1   30 B1   46 A1   47 A1                 
  0.494   0.511   0.512   0.606   0.615   0.619   0.645   0.647
 31 B1   32 B1   48 A1   49 A1   33 B1   19 B2   34 B1   50 A1                 
  0.716   0.729   0.736   0.737   0.741   0.747   0.766   0.774
 51 A1   35 B1   20 B2   36 B1   52 A1   21 B2    8 A2   53 A1                 
  0.787   0.787   0.805   0.824   0.829   0.866   0.888   0.897
  9 A2   37 B1   22 B2   54 A1   10 A2   23 B2   55 A1   56 A1                 
  0.924   0.925   0.935   0.939   0.960   0.985   1.012   1.031
 38 B1   24 B2   57 A1   39 B1   58 A1   59 A1   40 B1   60 A1                 
  1.059   1.069   1.097   1.098   1.112   1.126   1.177   1.203
 41 B1   61 A1   42 B1   62 A1   63 A1   43 B1   44 B1   25 B2                 
  1.203   1.231   1.286   1.293   1.308   1.345   1.374   1.472
 64 A1   11 A2   65 A1   45 B1   12 A2   26 B2   13 A2   66 A1                 
  1.525   1.614   1.725   1.776   1.785   1.817   1.823   1.831
 27 B2   67 A1   46 B1   68 A1   47 B1   69 A1   28 B2   14 A2                 
  1.881   1.905   1.907   1.947   1.990   2.006   2.042   2.102
 29 B2   70 A1   48 B1   71 A1   49 B1   30 B2   15 A2   50 B1                 
  2.147   2.217   2.218   2.219   2.235   2.248   2.272   2.320
 72 A1   51 B1   31 B2   16 A2   52 B1   73 A1   32 B2   74 A1                 
  2.345   2.352   2.366   2.375   2.443   2.594   2.614   2.645

 Occupation and symmetry of molecular orbitals

 Point group: C2v (4 irreducible representations).

                           A1   A2   B1   B2    All 
 ----------------------------------------------------
 All molecular orbitals:
  - Alpha                  122  21   82   41    266 
  - Beta                   122  21   82   41    266 
 ----------------------------------------------------
 Alpha orbitals:
  - Frozen occupied        4    0    2    1     7   
  - Active occupied        15   2    9    5     31  
  - Active virtual         103  19   71   35    228 
  - Frozen virtual         0    0    0    0     0   
 ----------------------------------------------------
 Beta orbitals:
  - Frozen occupied        4    0    2    1     7   
  - Active occupied        15   2    9    5     31  
  - Active virtual         103  19   71   35    228 
  - Frozen virtual         0    0    0    0     0   
 ----------------------------------------------------

 Import integrals:   CPU 0.00 s  wall 0.00 s

 Import integrals:   CPU 1189.00 s  wall 158.75 s

 MP2 amplitudes:   CPU 7.91 s  wall 4.78 s

Running a double precision version
           CCSD T amplitudes will be solved using DIIS.

           Start     Size      MaxIter   EConv     TConv     
           3         7         100       1.00e-06  1.00e-04  
 ------------------------------------------------------------------------------
           Energy (a.u.)   Ediff      Tdiff       Comment
 ------------------------------------------------------------------------------
         -2803.87938333                           
     1   -2803.83955963   3.98e-02   1.02e+00     Step took 01.25.
     2   -2803.87990366   4.03e-02   1.43e-01     
     3   -2803.87786984   2.03e-03   4.92e-02     
     4   -2803.88120395   3.33e-03   1.44e-02     Switched to DIIS steps.
     5   -2803.88218430   9.80e-04   1.19e-02     
     6   -2803.88218901   4.71e-06   2.20e-03     
     7   -2803.88218150   7.51e-06   1.10e-03     
     8   -2803.88218326   1.76e-06   2.14e-04     
     9   -2803.88218278   4.76e-07   8.04e-05     
 ------------------------------------------------------------------------------
         -2803.88218278                           CCSD T converged.

End of double precision
 SCF energy                 = -2802.54027620
 MP2 energy                 = -2803.87938333
 CCSD correlation energy     =    -1.34190658
 CCSD total energy           = -2803.88218278

 CCSD  T1^2 = 0.0086  T2^2 = 0.4137  Leading amplitudes:

 Amplitude    Orbitals with energies
 -0.0181       2 (A2) A                  ->    8 (A2) A                   
              -0.3538                          0.7661                     
 -0.0181       2 (A2) B                  ->    8 (A2) B                   
              -0.3538                          0.7661                     
  0.0133       4 (B2) A                  ->    21 (B2) A                  
              -0.5346                          0.7475                     
  0.0133       4 (B2) B                  ->    21 (B2) B                  
              -0.5346                          0.7475                     

 Amplitude    Orbitals with energies
 -0.0687       2 (A2) A      2 (A2) B    ->    5 (A2) A      5 (A2) B     
              -0.3538       -0.3538            0.1009        0.1009       
  0.0687       2 (A2) A      2 (A2) B    ->    5 (A2) B      5 (A2) A     
              -0.3538       -0.3538            0.1009        0.1009       
  0.0687       2 (A2) B      2 (A2) A    ->    5 (A2) A      5 (A2) B     
              -0.3538       -0.3538            0.1009        0.1009       
 -0.0687       2 (A2) B      2 (A2) A    ->    5 (A2) B      5 (A2) A     
              -0.3538       -0.3538            0.1009        0.1009       

 Computing CCSD intemediates for later calculations in double precision
 Finished.

Running a double precision version
           CCSD Lambda amplitudes will be solved using DIIS.
           Start     Size      MaxIter   EConv     LConv     
           3         7         100       1.00e-06  1.00e-04  
 ------------------------------------------------------------------------------
            Enorm      Ldiff       Comment
 ------------------------------------------------------------------------------
     1     5.94e-02   4.55e-02     
     2     1.14e-02   1.23e-03     
     3     3.88e-03   1.74e-03     
     4     1.59e-03   3.17e-04     Switched to DIIS steps.
     5     4.97e-04   3.13e-04     
     6     2.26e-04   7.66e-05     
     7     6.49e-05   2.87e-05     
     8     2.78e-05   4.32e-06     
     9     9.05e-06   9.66e-07     
    10     3.55e-06   8.43e-08     
    11     1.42e-06   1.45e-07     
    12     4.68e-07   8.67e-08     
 ------------------------------------------------------------------------------
                                   CCSD Lambda converged.

 CCSD calculation:   CPU 13293.33 s  wall 1428.70 s

        Solving for EOMEE-CCSD A1 singlet states.

Running a double precision version
       EOMEE-CCSD-SINGLES right amplitudes will be solved using Davidson.
        Amplitudes will be solved using standard  algorithm.
     Hard-coded thresholds: 
     LinDepThresh=1.00e-15  NormThresh=1.00e-06  ReorthogonThresh=1.00e-02

      Roots     MaxVec    MaxIter   Precond   Conv      Shift    
      10        1000      60        1         1.00e-04  0.00e+00  
 ------------------------------------------------------------------------------
      Iter ConvRoots NVecs ResNorm Current eigenvalues (eV)
 ------------------------------------------------------------------------------
      0    0      10    6.07e-04   9.4272   9.9798   10.4747   10.5524   10.6489   11.0856   11.0989   11.1096   11.6242   12.1394   
      1    0      20    2.04e-02   9.3831   9.9278   10.4285   10.5127   10.6197   11.0561   11.0767   11.0884   11.6137   12.1325   
      2    0      30    5.24e-03   9.2064   9.7131   10.1242   10.4001   10.5044   10.5246   10.7110   11.0016   11.3228   11.4585   
      3    0      40    8.65e-03   9.1316   9.4692   9.8067   10.3323   10.4117   10.4986   10.6473   10.7913   11.0488   11.2933   
      4    1      50    1.15e-03   9.1146   9.4291   9.7932   10.3247   10.4095*  10.4891   10.6017   10.6999   11.0359   11.2152   
      5    7      59    9.97e-05   9.1139*  9.4281*  9.7929*  10.3242*  10.4094*  10.4877*  10.5943   10.6947   11.0345*  11.2085   
      6    10     62    1.29e-05   9.1139*  9.4281*  9.7929*  10.3242*  10.4094*  10.4876*  10.5938*  10.6944*  11.0344*  11.2080*  

     Davidson procedure converged

 EOMEE transition 1/A1
 Total energy = -2803.54725227 a.u.  Excitation energy = 9.1139 eV.
 R1^2 = 1.0000  Res^2 = 1.21e-05
 Conv-d = yes

 Amplitude    Transitions between orbitals
  0.4556       6 (B2) A                  ->    7 (B2) A                   
  0.4556       6 (B2) B                  ->    7 (B2) B                   
 -0.3267       6 (B2) A                  ->    12 (B2) A                  
 -0.3267       6 (B2) B                  ->    12 (B2) B                  
 -0.2395       2 (A2) A                  ->    5 (A2) A                   
 -0.2395       2 (A2) B                  ->    5 (A2) B                   
  0.2367       6 (B2) A                  ->    10 (B2) A                  
  0.2367       6 (B2) B                  ->    10 (B2) B                  
  0.1428       6 (B2) A                  ->    9 (B2) A                   
  0.1428       6 (B2) B                  ->    9 (B2) B                   
 -0.1192       6 (B2) A                  ->    11 (B2) A                  
 -0.1192       6 (B2) B                  ->    11 (B2) B                  

              Summary of significant orbitals:

               Number  Type             Irrep      Energy
               37      Occ  Alpha       2 (A2)     -0.3538
               38      Occ  Alpha       6 (B2)     -0.3350
               37      Occ  Beta        2 (A2)     -0.3538
               38      Occ  Beta        6 (B2)     -0.3350
               64      Vir  Alpha       5 (A2)      0.1009
               42      Vir  Alpha       7 (B2)      0.0260
               50      Vir  Alpha       9 (B2)      0.0536
               56      Vir  Alpha      10 (B2)      0.0668
               58      Vir  Alpha      11 (B2)      0.0694
               63      Vir  Alpha      12 (B2)      0.0997
               64      Vir  Beta        5 (A2)      0.1009
               42      Vir  Beta        7 (B2)      0.0260
               50      Vir  Beta        9 (B2)      0.0536
               56      Vir  Beta       10 (B2)      0.0668
               58      Vir  Beta       11 (B2)      0.0694
               63      Vir  Beta       12 (B2)      0.0997


 EOMEE transition 2/A1
 Total energy = -2803.53570756 a.u.  Excitation energy = 9.4281 eV.
 R1^2 = 1.0000  Res^2 = 1.64e-05
 Conv-d = yes

 Amplitude    Transitions between orbitals
  0.3798       6 (B2) A                  ->    7 (B2) A                   
  0.3798       6 (B2) B                  ->    7 (B2) B                   
  0.3675       6 (B2) A                  ->    12 (B2) A                  
  0.3675       6 (B2) B                  ->    12 (B2) B                  
  0.2906       2 (A2) A                  ->    5 (A2) A                   
  0.2906       2 (A2) B                  ->    5 (A2) B                   
 -0.2811       6 (B2) A                  ->    8 (B2) A                   
 -0.2811       6 (B2) B                  ->    8 (B2) B                   
  0.1059       6 (B2) A                  ->    10 (B2) A                  
  0.1059       6 (B2) B                  ->    10 (B2) B                  
 -0.1037       6 (B2) A                  ->    13 (B2) A                  
 -0.1037       6 (B2) B                  ->    13 (B2) B                  

              Summary of significant orbitals:

               Number  Type             Irrep      Energy
               37      Occ  Alpha       2 (A2)     -0.3538
               38      Occ  Alpha       6 (B2)     -0.3350
               37      Occ  Beta        2 (A2)     -0.3538
               38      Occ  Beta        6 (B2)     -0.3350
               64      Vir  Alpha       5 (A2)      0.1009
               42      Vir  Alpha       7 (B2)      0.0260
               46      Vir  Alpha       8 (B2)      0.0396
               56      Vir  Alpha      10 (B2)      0.0668
               63      Vir  Alpha      12 (B2)      0.0997
               69      Vir  Alpha      13 (B2)      0.1565
               64      Vir  Beta        5 (A2)      0.1009
               42      Vir  Beta        7 (B2)      0.0260
               46      Vir  Beta        8 (B2)      0.0396
               56      Vir  Beta       10 (B2)      0.0668
               63      Vir  Beta       12 (B2)      0.0997
               69      Vir  Beta       13 (B2)      0.1565


 EOMEE transition 3/A1
 Total energy = -2803.52230026 a.u.  Excitation energy = 9.7929 eV.
 R1^2 = 1.0000  Res^2 = 3.87e-06
 Conv-d = yes

 Amplitude    Transitions between orbitals
 -0.5881       6 (B2) A                  ->    8 (B2) A                   
 -0.5881       6 (B2) B                  ->    8 (B2) B                   
 -0.2282       2 (A2) A                  ->    5 (A2) A                   
 -0.2282       2 (A2) B                  ->    5 (A2) B                   
 -0.1318       6 (B2) A                  ->    14 (B2) A                  
 -0.1318       6 (B2) B                  ->    14 (B2) B                  
  0.1261       5 (B2) A                  ->    7 (B2) A                   
  0.1261       5 (B2) B                  ->    7 (B2) B                   
 -0.1064       6 (B2) A                  ->    7 (B2) A                   
 -0.1064       6 (B2) B                  ->    7 (B2) B                   

              Summary of significant orbitals:

               Number  Type             Irrep      Energy
               37      Occ  Alpha       2 (A2)     -0.3538
               35      Occ  Alpha       5 (B2)     -0.4400
               38      Occ  Alpha       6 (B2)     -0.3350
               37      Occ  Beta        2 (A2)     -0.3538
               35      Occ  Beta        5 (B2)     -0.4400
               38      Occ  Beta        6 (B2)     -0.3350
               64      Vir  Alpha       5 (A2)      0.1009
               42      Vir  Alpha       7 (B2)      0.0260
               46      Vir  Alpha       8 (B2)      0.0396
               71      Vir  Alpha      14 (B2)      0.1737
               64      Vir  Beta        5 (A2)      0.1009
               42      Vir  Beta        7 (B2)      0.0260
               46      Vir  Beta        8 (B2)      0.0396
               71      Vir  Beta       14 (B2)      0.1737


 EOMEE transition 4/A1
 Total energy = -2803.50277432 a.u.  Excitation energy = 10.3242 eV.
 R1^2 = 1.0000  Res^2 = 1.22e-05
 Conv-d = yes

 Amplitude    Transitions between orbitals
 -0.5016       6 (B2) A                  ->    9 (B2) A                   
 -0.5016       6 (B2) B                  ->    9 (B2) B                   
 -0.2603       6 (B2) A                  ->    10 (B2) A                  
 -0.2603       6 (B2) B                  ->    10 (B2) B                  
  0.2230       2 (A2) A                  ->    3 (A2) A                   
  0.2230       2 (A2) B                  ->    3 (A2) B                   
  0.2069       6 (B2) A                  ->    7 (B2) A                   
  0.2069       6 (B2) B                  ->    7 (B2) B                   
 -0.1982       2 (A2) A                  ->    5 (A2) A                   
 -0.1982       2 (A2) B                  ->    5 (A2) B                   

              Summary of significant orbitals:

               Number  Type             Irrep      Energy
               37      Occ  Alpha       2 (A2)     -0.3538
               38      Occ  Alpha       6 (B2)     -0.3350
               37      Occ  Beta        2 (A2)     -0.3538
               38      Occ  Beta        6 (B2)     -0.3350
               47      Vir  Alpha       3 (A2)      0.0426
               64      Vir  Alpha       5 (A2)      0.1009
               42      Vir  Alpha       7 (B2)      0.0260
               50      Vir  Alpha       9 (B2)      0.0536
               56      Vir  Alpha      10 (B2)      0.0668
               47      Vir  Beta        3 (A2)      0.0426
               64      Vir  Beta        5 (A2)      0.1009
               42      Vir  Beta        7 (B2)      0.0260
               50      Vir  Beta        9 (B2)      0.0536
               56      Vir  Beta       10 (B2)      0.0668


 EOMEE transition 5/A1
 Total energy = -2803.49964430 a.u.  Excitation energy = 10.4094 eV.
 R1^2 = 1.0000  Res^2 = 4.61e-06
 Conv-d = yes

 Amplitude    Transitions between orbitals
  0.6289       2 (A2) A                  ->    3 (A2) A                   
  0.6289       2 (A2) B                  ->    3 (A2) B                   
  0.1655       6 (B2) A                  ->    9 (B2) A                   
  0.1655       6 (B2) B                  ->    9 (B2) B                   
  0.1646       6 (B2) A                  ->    10 (B2) A                  
  0.1646       6 (B2) B                  ->    10 (B2) B                  
  0.1461       2 (A2) A                  ->    6 (A2) A                   
  0.1461       2 (A2) B                  ->    6 (A2) B                   

              Summary of significant orbitals:

               Number  Type             Irrep      Energy
               37      Occ  Alpha       2 (A2)     -0.3538
               38      Occ  Alpha       6 (B2)     -0.3350
               37      Occ  Beta        2 (A2)     -0.3538
               38      Occ  Beta        6 (B2)     -0.3350
               47      Vir  Alpha       3 (A2)      0.0426
               73      Vir  Alpha       6 (A2)      0.1793
               50      Vir  Alpha       9 (B2)      0.0536
               56      Vir  Alpha      10 (B2)      0.0668
               47      Vir  Beta        3 (A2)      0.0426
               73      Vir  Beta        6 (A2)      0.1793
               50      Vir  Beta        9 (B2)      0.0536
               56      Vir  Beta       10 (B2)      0.0668


 EOMEE transition 6/A1
 Total energy = -2803.49677019 a.u.  Excitation energy = 10.4876 eV.
 R1^2 = 1.0000  Res^2 = 6.91e-06
 Conv-d = yes

 Amplitude    Transitions between orbitals
  0.4259       6 (B2) A                  ->    10 (B2) A                  
  0.4259       6 (B2) B                  ->    10 (B2) B                  
 -0.2595       6 (B2) A                  ->    9 (B2) A                   
 -0.2595       6 (B2) B                  ->    9 (B2) B                   
 -0.2355       6 (B2) A                  ->    7 (B2) A                   
 -0.2355       6 (B2) B                  ->    7 (B2) B                   
 -0.2313       6 (B2) A                  ->    11 (B2) A                  
 -0.2313       6 (B2) B                  ->    11 (B2) B                  
 -0.1804       2 (A2) A                  ->    5 (A2) A                   
 -0.1804       2 (A2) B                  ->    5 (A2) B                   
  0.1590       6 (B2) A                  ->    12 (B2) A                  
  0.1590       6 (B2) B                  ->    12 (B2) B                  
 -0.1162       2 (A2) A                  ->    4 (A2) A                   
 -0.1162       2 (A2) B                  ->    4 (A2) B                   
 -0.1021       11 (B1) A                 ->    12 (B1) A                  
 -0.1021       11 (B1) B                 ->    12 (B1) B                  

              Summary of significant orbitals:

               Number  Type             Irrep      Energy
               37      Occ  Alpha       2 (A2)     -0.3538
               36      Occ  Alpha      11 (B1)     -0.4171
               38      Occ  Alpha       6 (B2)     -0.3350
               37      Occ  Beta        2 (A2)     -0.3538
               36      Occ  Beta       11 (B1)     -0.4171
               38      Occ  Beta        6 (B2)     -0.3350
               51      Vir  Alpha       4 (A2)      0.0553
               64      Vir  Alpha       5 (A2)      0.1009
               40      Vir  Alpha      12 (B1)      0.0201
               42      Vir  Alpha       7 (B2)      0.0260
               50      Vir  Alpha       9 (B2)      0.0536
               56      Vir  Alpha      10 (B2)      0.0668
               58      Vir  Alpha      11 (B2)      0.0694
               63      Vir  Alpha      12 (B2)      0.0997
               51      Vir  Beta        4 (A2)      0.0553
               64      Vir  Beta        5 (A2)      0.1009
               40      Vir  Beta       12 (B1)      0.0201
               42      Vir  Beta        7 (B2)      0.0260
               50      Vir  Beta        9 (B2)      0.0536
               56      Vir  Beta       10 (B2)      0.0668
               58      Vir  Beta       11 (B2)      0.0694
               63      Vir  Beta       12 (B2)      0.0997


 EOMEE transition 7/A1
 Total energy = -2803.49286801 a.u.  Excitation energy = 10.5938 eV.
 R1^2 = 1.0000  Res^2 = 1.84e-05
 Conv-d = yes

 Amplitude    Transitions between orbitals
 -0.3226       6 (B2) A                  ->    12 (B2) A                  
 -0.3226       6 (B2) B                  ->    12 (B2) B                  
 -0.2733       6 (B2) A                  ->    9 (B2) A                   
 -0.2733       6 (B2) B                  ->    9 (B2) B                   
  0.2623       2 (A2) A                  ->    5 (A2) A                   
  0.2623       2 (A2) B                  ->    5 (A2) B                   
  0.2183       11 (B1) A                 ->    12 (B1) A                  
  0.2183       11 (B1) B                 ->    12 (B1) B                  
  0.2008       2 (A2) A                  ->    4 (A2) A                   
  0.2008       2 (A2) B                  ->    4 (A2) B                   
 -0.1732       11 (B1) A                 ->    13 (B1) A                  
 -0.1732       11 (B1) B                 ->    13 (B1) B                  
 -0.1653       6 (B2) A                  ->    11 (B2) A                  
 -0.1653       6 (B2) B                  ->    11 (B2) B                  
  0.1626       11 (B1) A                 ->    17 (B1) A                  
  0.1626       11 (B1) B                 ->    17 (B1) B                  
 -0.1525       6 (B2) A                  ->    8 (B2) A                   
 -0.1525       6 (B2) B                  ->    8 (B2) B                   

              Summary of significant orbitals:

               Number  Type             Irrep      Energy
               37      Occ  Alpha       2 (A2)     -0.3538
               36      Occ  Alpha      11 (B1)     -0.4171
               38      Occ  Alpha       6 (B2)     -0.3350
               37      Occ  Beta        2 (A2)     -0.3538
               36      Occ  Beta       11 (B1)     -0.4171
               38      Occ  Beta        6 (B2)     -0.3350
               51      Vir  Alpha       4 (A2)      0.0553
               64      Vir  Alpha       5 (A2)      0.1009
               40      Vir  Alpha      12 (B1)      0.0201
               43      Vir  Alpha      13 (B1)      0.0291
               59      Vir  Alpha      17 (B1)      0.0763
               46      Vir  Alpha       8 (B2)      0.0396
               50      Vir  Alpha       9 (B2)      0.0536
               58      Vir  Alpha      11 (B2)      0.0694
               63      Vir  Alpha      12 (B2)      0.0997
               51      Vir  Beta        4 (A2)      0.0553
               64      Vir  Beta        5 (A2)      0.1009
               40      Vir  Beta       12 (B1)      0.0201
               43      Vir  Beta       13 (B1)      0.0291
               59      Vir  Beta       17 (B1)      0.0763
               46      Vir  Beta        8 (B2)      0.0396
               50      Vir  Beta        9 (B2)      0.0536
               58      Vir  Beta       11 (B2)      0.0694
               63      Vir  Beta       12 (B2)      0.0997


 EOMEE transition 8/A1
 Total energy = -2803.48916923 a.u.  Excitation energy = 10.6944 eV.
 R1^2 = 1.0000  Res^2 = 1.04e-05
 Conv-d = yes

 Amplitude    Transitions between orbitals
  0.3926       11 (B1) A                 ->    12 (B1) A                  
  0.3926       11 (B1) B                 ->    12 (B1) B                  
 -0.2972       11 (B1) A                 ->    13 (B1) A                  
 -0.2972       11 (B1) B                 ->    13 (B1) B                  
  0.2522       11 (B1) A                 ->    17 (B1) A                  
  0.2522       11 (B1) B                 ->    17 (B1) B                  
  0.2407       6 (B2) A                  ->    12 (B2) A                  
  0.2407       6 (B2) B                  ->    12 (B2) B                  
 -0.1788       2 (A2) A                  ->    5 (A2) A                   
 -0.1788       2 (A2) B                  ->    5 (A2) B                   
 -0.1643       2 (A2) A                  ->    4 (A2) A                   
 -0.1643       2 (A2) B                  ->    4 (A2) B                   
  0.1389       11 (B1) A                 ->    15 (B1) A                  
  0.1389       11 (B1) B                 ->    15 (B1) B                  
  0.1285       11 (B1) A                 ->    20 (B1) A                  
  0.1285       11 (B1) B                 ->    20 (B1) B                  

              Summary of significant orbitals:

               Number  Type             Irrep      Energy
               37      Occ  Alpha       2 (A2)     -0.3538
               36      Occ  Alpha      11 (B1)     -0.4171
               38      Occ  Alpha       6 (B2)     -0.3350
               37      Occ  Beta        2 (A2)     -0.3538
               36      Occ  Beta       11 (B1)     -0.4171
               38      Occ  Beta        6 (B2)     -0.3350
               51      Vir  Alpha       4 (A2)      0.0553
               64      Vir  Alpha       5 (A2)      0.1009
               40      Vir  Alpha      12 (B1)      0.0201
               43      Vir  Alpha      13 (B1)      0.0291
               53      Vir  Alpha      15 (B1)      0.0630
               59      Vir  Alpha      17 (B1)      0.0763
               70      Vir  Alpha      20 (B1)      0.1649
               63      Vir  Alpha      12 (B2)      0.0997
               51      Vir  Beta        4 (A2)      0.0553
               64      Vir  Beta        5 (A2)      0.1009
               40      Vir  Beta       12 (B1)      0.0201
               43      Vir  Beta       13 (B1)      0.0291
               53      Vir  Beta       15 (B1)      0.0630
               59      Vir  Beta       17 (B1)      0.0763
               70      Vir  Beta       20 (B1)      0.1649
               63      Vir  Beta       12 (B2)      0.0997


 EOMEE transition 9/A1
 Total energy = -2803.47667469 a.u.  Excitation energy = 11.0344 eV.
 R1^2 = 1.0000  Res^2 = 1.48e-05
 Conv-d = yes

 Amplitude    Transitions between orbitals
  0.6048       6 (B2) A                  ->    11 (B2) A                  
  0.6048       6 (B2) B                  ->    11 (B2) B                  
  0.2896       6 (B2) A                  ->    10 (B2) A                  
  0.2896       6 (B2) B                  ->    10 (B2) B                  
 -0.1429       6 (B2) A                  ->    9 (B2) A                   
 -0.1429       6 (B2) B                  ->    9 (B2) B                   

              Summary of significant orbitals:

               Number  Type             Irrep      Energy
               38      Occ  Alpha       6 (B2)     -0.3350
               38      Occ  Beta        6 (B2)     -0.3350
               50      Vir  Alpha       9 (B2)      0.0536
               56      Vir  Alpha      10 (B2)      0.0668
               58      Vir  Alpha      11 (B2)      0.0694
               50      Vir  Beta        9 (B2)      0.0536
               56      Vir  Beta       10 (B2)      0.0668
               58      Vir  Beta       11 (B2)      0.0694


 EOMEE transition 10/A1
 Total energy = -2803.47029784 a.u.  Excitation energy = 11.2080 eV.
 R1^2 = 1.0000  Res^2 = 2.92e-05
 Conv-d = yes

 Amplitude    Transitions between orbitals
 -0.6049       2 (A2) A                  ->    4 (A2) A                   
 -0.6049       2 (A2) B                  ->    4 (A2) B                   
  0.2699       2 (A2) A                  ->    5 (A2) A                   
  0.2699       2 (A2) B                  ->    5 (A2) B                   
 -0.1110       6 (B2) A                  ->    12 (B2) A                  
 -0.1110       6 (B2) B                  ->    12 (B2) B                  

              Summary of significant orbitals:

               Number  Type             Irrep      Energy
               37      Occ  Alpha       2 (A2)     -0.3538
               38      Occ  Alpha       6 (B2)     -0.3350
               37      Occ  Beta        2 (A2)     -0.3538
               38      Occ  Beta        6 (B2)     -0.3350
               51      Vir  Alpha       4 (A2)      0.0553
               64      Vir  Alpha       5 (A2)      0.1009
               63      Vir  Alpha      12 (B2)      0.0997
               51      Vir  Beta        4 (A2)      0.0553
               64      Vir  Beta        5 (A2)      0.1009
               63      Vir  Beta       12 (B2)      0.0997


Running a double precision version
        EOMEE-CCSD/MP2 right amplitudes will be solved using Davidson.
 ------------------------------------------------------------------------------
      Iter ConvRoots NVecs ResNorm Current eigenvalues (eV)
 ------------------------------------------------------------------------------
          0      0    101.58e-01   9.1139   9.4281   9.7929   
          1      0    131.52e+01   8.1206   8.7264   9.2453   
          2      0    162.30e-01   6.4650   7.0875   7.5564   
          3      0    191.02e-02   6.3473   7.0255   7.4620   
          4      0    222.11e-02   6.2961   7.0108   7.3610   
          5      0    259.27e-03   6.2834   7.0065   7.2402   
          6      1    286.41e-04   6.2759   7.0051*  7.1919   
          7      0    301.44e-03   6.2740   7.0049   7.1796   
          8      1    331.67e-04   6.2737   7.0047*  7.1754   
          9      2    357.89e-05   6.2734*  7.0046*  7.1746   
         10      3    363.71e-05   6.2732*  7.0046*  7.1740*  

     Davidson procedure converged

 EOMEE transition 1/A1
 Total energy = -2803.65164599 a.u.  Excitation energy = 6.2732 eV.
 R0^2 = 0.0001  R1^2 = 0.9353  R2^2 = 0.0647  Res^2 = 4.41e-06
 Conv-d = yes

 Amplitude    Transitions between orbitals
 -0.5529       6 (B2) A                  ->    12 (B2) A                  
 -0.5529       6 (B2) B                  ->    12 (B2) B                  
 -0.2592       2 (A2) A                  ->    5 (A2) A                   
 -0.2592       2 (A2) B                  ->    5 (A2) B                   
  0.1397       6 (B2) A                  ->    7 (B2) A                   
  0.1397       6 (B2) B                  ->    7 (B2) B                   
  0.1202       6 (B2) A                  ->    9 (B2) A                   
  0.1202       6 (B2) B                  ->    9 (B2) B                   
  0.1099       6 (B2) A                  ->    10 (B2) A                  
  0.1099       6 (B2) B                  ->    10 (B2) B                  

              Summary of significant orbitals:

               Number  Type             Irrep      Energy
               37      Occ  Alpha       2 (A2)     -0.3538
               38      Occ  Alpha       6 (B2)     -0.3350
               37      Occ  Beta        2 (A2)     -0.3538
               38      Occ  Beta        6 (B2)     -0.3350
               64      Vir  Alpha       5 (A2)      0.1009
               42      Vir  Alpha       7 (B2)      0.0260
               50      Vir  Alpha       9 (B2)      0.0536
               56      Vir  Alpha      10 (B2)      0.0668
               63      Vir  Alpha      12 (B2)      0.0997
               64      Vir  Beta        5 (A2)      0.1009
               42      Vir  Beta        7 (B2)      0.0260
               50      Vir  Beta        9 (B2)      0.0536
               56      Vir  Beta       10 (B2)      0.0668
               63      Vir  Beta       12 (B2)      0.0997


 EOMEE transition 2/A1
 Total energy = -2803.62476876 a.u.  Excitation energy = 7.0046 eV.
 R0^2 = 0.0000  R1^2 = 0.9367  R2^2 = 0.0633  Res^2 = 2.40e-05
 Conv-d = yes

 Amplitude    Transitions between orbitals
 -0.5407       6 (B2) A                  ->    7 (B2) A                   
 -0.5407       6 (B2) B                  ->    7 (B2) B                   
 -0.2217       6 (B2) A                  ->    10 (B2) A                  
 -0.2217       6 (B2) B                  ->    10 (B2) B                  
  0.2158       6 (B2) A                  ->    8 (B2) A                   
  0.2158       6 (B2) B                  ->    8 (B2) B                   
  0.1523       6 (B2) A                  ->    13 (B2) A                  
  0.1523       6 (B2) B                  ->    13 (B2) B                  
 -0.1496       6 (B2) A                  ->    12 (B2) A                  
 -0.1496       6 (B2) B                  ->    12 (B2) B                  
  0.1035       6 (B2) A                  ->    14 (B2) A                  
  0.1035       6 (B2) B                  ->    14 (B2) B                  

              Summary of significant orbitals:

               Number  Type             Irrep      Energy
               38      Occ  Alpha       6 (B2)     -0.3350
               38      Occ  Beta        6 (B2)     -0.3350
               42      Vir  Alpha       7 (B2)      0.0260
               46      Vir  Alpha       8 (B2)      0.0396
               56      Vir  Alpha      10 (B2)      0.0668
               63      Vir  Alpha      12 (B2)      0.0997
               69      Vir  Alpha      13 (B2)      0.1565
               71      Vir  Alpha      14 (B2)      0.1737
               42      Vir  Beta        7 (B2)      0.0260
               46      Vir  Beta        8 (B2)      0.0396
               56      Vir  Beta       10 (B2)      0.0668
               63      Vir  Beta       12 (B2)      0.0997
               69      Vir  Beta       13 (B2)      0.1565
               71      Vir  Beta       14 (B2)      0.1737


 EOMEE transition 3/A1
 Total energy = -2803.61854464 a.u.  Excitation energy = 7.1740 eV.
 R0^2 = 0.0001  R1^2 = 0.9309  R2^2 = 0.0691  Res^2 = 8.29e-05
 Conv-d = yes

 Amplitude    Transitions between orbitals
 -0.5524       2 (A2) A                  ->    5 (A2) A                   
 -0.5524       2 (A2) B                  ->    5 (A2) B                   
  0.1924       6 (B2) A                  ->    12 (B2) A                  
  0.1924       6 (B2) B                  ->    12 (B2) B                  
 -0.1698       6 (B2) A                  ->    8 (B2) A                   
 -0.1698       6 (B2) B                  ->    8 (B2) B                   
 -0.1543       2 (A2) A                  ->    4 (A2) A                   
 -0.1543       2 (A2) B                  ->    4 (A2) B                   
 -0.1420       5 (B2) A                  ->    12 (B2) A                  
 -0.1420       5 (B2) B                  ->    12 (B2) B                  
 -0.1005       2 (A2) A                  ->    7 (A2) A                   
 -0.1005       2 (A2) B                  ->    7 (A2) B                   

              Summary of significant orbitals:

               Number  Type             Irrep      Energy
               37      Occ  Alpha       2 (A2)     -0.3538
               35      Occ  Alpha       5 (B2)     -0.4400
               38      Occ  Alpha       6 (B2)     -0.3350
               37      Occ  Beta        2 (A2)     -0.3538
               35      Occ  Beta        5 (B2)     -0.4400
               38      Occ  Beta        6 (B2)     -0.3350
               51      Vir  Alpha       4 (A2)      0.0553
               64      Vir  Alpha       5 (A2)      0.1009
               83      Vir  Alpha       7 (A2)      0.2305
               46      Vir  Alpha       8 (B2)      0.0396
               63      Vir  Alpha      12 (B2)      0.0997
               51      Vir  Beta        4 (A2)      0.0553
               64      Vir  Beta        5 (A2)      0.1009
               83      Vir  Beta        7 (A2)      0.2305
               46      Vir  Beta        8 (B2)      0.0396
               63      Vir  Beta       12 (B2)      0.0997


Running a double precision version
      EOM-CCSD/MP2 left amplitudes will be solved using Davidson.
        Amplitudes will be solved using MOM  algorithm.
     Hard-coded thresholds: 
     LinDepThresh=1.00e-15  NormThresh=1.00e-06  ReorthogonThresh=1.00e-02

      Roots     MaxVec    MaxIter   Precond   Conv      Shift    
      3         1000      60        1         1.00e-04  0.00e+00  
 ------------------------------------------------------------------------------
      Iter ConvRoots NVecs ResNorm Current eigenvalues (eV)
 ------------------------------------------------------------------------------
      0    0      3     6.73e-03   6.2732   7.0046   7.1740   
      1    0      6     1.52e+00   6.2732   7.0046   7.1739   
      2    0      9     9.19e-04   6.2732   7.0046   7.1740   
      3    0      12    1.13e-03   6.2732   7.0046   7.1739   
      4    2      15    1.02e-04   6.2732   7.0046*  7.1739*  
      5    3      16    4.95e-05   6.2732*  7.0046*  7.1739*  

     Davidson procedure converged

        Solving for EOMEE-CCSD B1 singlet states.

Running a double precision version
       EOMEE-CCSD-SINGLES right amplitudes will be solved using Davidson.
        Amplitudes will be solved using standard  algorithm.
     Hard-coded thresholds: 
     LinDepThresh=1.00e-15  NormThresh=1.00e-06  ReorthogonThresh=1.00e-02

      Roots     MaxVec    MaxIter   Precond   Conv      Shift    
      10        1000      60        1         1.00e-04  0.00e+00  
 ------------------------------------------------------------------------------
      Iter ConvRoots NVecs ResNorm Current eigenvalues (eV)
 ------------------------------------------------------------------------------
      0    0      10    5.41e-04   9.9578   10.0118   10.4773   10.6105   10.7450   11.1399   11.2146   11.2550   11.7168   11.7621   
      1    0      20    2.19e-02   9.8681   9.9757   10.4364   10.5701   10.6823   11.1019   11.1879   11.2074   11.6962   11.7523   
      2    0      30    4.36e-03   9.7209   9.8305   9.9080   9.9544   10.4194   10.5898   10.8411   11.1370   11.1816   11.5077   
      3    0      40    1.24e-02   9.2933   9.7132   9.7591   9.8868   10.0556   10.3608   10.6057   10.9443   11.1592   11.2792   
      4    1      50    2.58e-03   9.2627   9.6400   9.7390   9.8854*  9.9413   10.3441   10.5898   10.8517   11.1506   11.1835   
      5    5      59    5.69e-04   9.2617*  9.6283   9.7380*  9.8852*  9.9328   10.3430*  10.5886*  10.8433   11.1474   11.1701   
      6    8      64    2.03e-04   9.2617*  9.6280*  9.7380*  9.8852*  9.9326*  10.3430*  10.5885*  10.8427*  11.1457   11.1607   
      7    8      66    2.11e-04   9.2617*  9.6280*  9.7380*  9.8852*  9.9326*  10.3430*  10.5885*  10.8427*  11.1432   11.1553   
      8    8      68    4.44e-05   9.2617*  9.6280*  9.7380*  9.8852*  9.9326*  10.3430*  10.5885*  10.8427*  11.1422   11.1542   
      9    10     70    1.27e-05   9.2617*  9.6280*  9.7380*  9.8852*  9.9326*  10.3430*  10.5885*  10.8427*  11.1421*  11.1541*  

     Davidson procedure converged

 EOMEE transition 1/B1
 Total energy = -2803.54182161 a.u.  Excitation energy = 9.2617 eV.
 R1^2 = 1.0000  Res^2 = 1.03e-05
 Conv-d = yes

 Amplitude    Transitions between orbitals
 -0.5169       6 (B2) A                  ->    5 (A2) A                   
 -0.5169       6 (B2) B                  ->    5 (A2) B                   
  0.3871       2 (A2) A                  ->    12 (B2) A                  
  0.3871       2 (A2) B                  ->    12 (B2) B                  
 -0.1887       6 (B2) A                  ->    4 (A2) A                   
 -0.1887       6 (B2) B                  ->    4 (A2) B                   

              Summary of significant orbitals:

               Number  Type             Irrep      Energy
               37      Occ  Alpha       2 (A2)     -0.3538
               38      Occ  Alpha       6 (B2)     -0.3350
               37      Occ  Beta        2 (A2)     -0.3538
               38      Occ  Beta        6 (B2)     -0.3350
               51      Vir  Alpha       4 (A2)      0.0553
               64      Vir  Alpha       5 (A2)      0.1009
               63      Vir  Alpha      12 (B2)      0.0997
               51      Vir  Beta        4 (A2)      0.0553
               64      Vir  Beta        5 (A2)      0.1009
               63      Vir  Beta       12 (B2)      0.0997


 EOMEE transition 2/B1
 Total energy = -2803.52836137 a.u.  Excitation energy = 9.6280 eV.
 R1^2 = 1.0000  Res^2 = 3.14e-05
 Conv-d = yes

 Amplitude    Transitions between orbitals
  0.2984       11 (B1) A                 ->    32 (A1) A                  
  0.2984       11 (B1) B                 ->    32 (A1) B                  
 -0.2723       11 (B1) A                 ->    21 (A1) A                  
 -0.2723       11 (B1) B                 ->    21 (A1) B                  
 -0.2717       11 (B1) A                 ->    26 (A1) A                  
 -0.2717       11 (B1) B                 ->    26 (A1) B                  
  0.2329       11 (B1) A                 ->    28 (A1) A                  
  0.2329       11 (B1) B                 ->    28 (A1) B                  
 -0.2136       11 (B1) A                 ->    31 (A1) A                  
 -0.2136       11 (B1) B                 ->    31 (A1) B                  
  0.1581       11 (B1) A                 ->    22 (A1) A                  
  0.1581       11 (B1) B                 ->    22 (A1) B                  
  0.1468       11 (B1) A                 ->    25 (A1) A                  
  0.1468       11 (B1) B                 ->    25 (A1) B                  
  0.1264       11 (B1) A                 ->    30 (A1) A                  
  0.1264       11 (B1) B                 ->    30 (A1) B                  
 -0.1245       11 (B1) A                 ->    34 (A1) A                  
 -0.1245       11 (B1) B                 ->    34 (A1) B                  
 -0.1228       11 (B1) A                 ->    33 (A1) A                  
 -0.1228       11 (B1) B                 ->    33 (A1) B                  
 -0.1227       11 (B1) A                 ->    36 (A1) A                  
 -0.1227       11 (B1) B                 ->    36 (A1) B                  
 -0.1209       11 (B1) A                 ->    29 (A1) A                  
 -0.1209       11 (B1) B                 ->    29 (A1) B                  
 -0.1198       11 (B1) A                 ->    20 (A1) A                  
 -0.1198       11 (B1) B                 ->    20 (A1) B                  

              Summary of significant orbitals:

               Number  Type             Irrep      Energy
               36      Occ  Alpha      11 (B1)     -0.4171
               36      Occ  Beta       11 (B1)     -0.4171
               39      Vir  Alpha      20 (A1)      0.0132
               41      Vir  Alpha      21 (A1)      0.0204
               44      Vir  Alpha      22 (A1)      0.0297
               52      Vir  Alpha      25 (A1)      0.0587
               54      Vir  Alpha      26 (A1)      0.0654
               60      Vir  Alpha      28 (A1)      0.0816
               61      Vir  Alpha      29 (A1)      0.0865
               65      Vir  Alpha      30 (A1)      0.1014
               67      Vir  Alpha      31 (A1)      0.1233
               68      Vir  Alpha      32 (A1)      0.1397
               72      Vir  Alpha      33 (A1)      0.1769
               74      Vir  Alpha      34 (A1)      0.1956
               78      Vir  Alpha      36 (A1)      0.2140
               39      Vir  Beta       20 (A1)      0.0132
               41      Vir  Beta       21 (A1)      0.0204
               44      Vir  Beta       22 (A1)      0.0297
               52      Vir  Beta       25 (A1)      0.0587
               54      Vir  Beta       26 (A1)      0.0654
               60      Vir  Beta       28 (A1)      0.0816
               61      Vir  Beta       29 (A1)      0.0865
               65      Vir  Beta       30 (A1)      0.1014
               67      Vir  Beta       31 (A1)      0.1233
               68      Vir  Beta       32 (A1)      0.1397
               72      Vir  Beta       33 (A1)      0.1769
               74      Vir  Beta       34 (A1)      0.1956
               78      Vir  Beta       36 (A1)      0.2140


 EOMEE transition 3/B1
 Total energy = -2803.52431834 a.u.  Excitation energy = 9.7380 eV.
 R1^2 = 1.0000  Res^2 = 3.74e-06
 Conv-d = yes

 Amplitude    Transitions between orbitals
  0.4891       2 (A2) A                  ->    7 (B2) A                   
  0.4891       2 (A2) B                  ->    7 (B2) B                   
 -0.2211       2 (A2) A                  ->    8 (B2) A                   
 -0.2211       2 (A2) B                  ->    8 (B2) B                   
  0.2032       2 (A2) A                  ->    10 (B2) A                  
  0.2032       2 (A2) B                  ->    10 (B2) B                  
 -0.1745       6 (B2) A                  ->    3 (A2) A                   
 -0.1745       6 (B2) B                  ->    3 (A2) B                   
  0.1528       2 (A2) A                  ->    9 (B2) A                   
  0.1528       2 (A2) B                  ->    9 (B2) B                   
 -0.1486       6 (B2) A                  ->    4 (A2) A                   
 -0.1486       6 (B2) B                  ->    4 (A2) B                   
 -0.1335       6 (B2) A                  ->    5 (A2) A                   
 -0.1335       6 (B2) B                  ->    5 (A2) B                   
 -0.1239       2 (A2) A                  ->    14 (B2) A                  
 -0.1239       2 (A2) B                  ->    14 (B2) B                  

              Summary of significant orbitals:

               Number  Type             Irrep      Energy
               37      Occ  Alpha       2 (A2)     -0.3538
               38      Occ  Alpha       6 (B2)     -0.3350
               37      Occ  Beta        2 (A2)     -0.3538
               38      Occ  Beta        6 (B2)     -0.3350
               47      Vir  Alpha       3 (A2)      0.0426
               51      Vir  Alpha       4 (A2)      0.0553
               64      Vir  Alpha       5 (A2)      0.1009
               42      Vir  Alpha       7 (B2)      0.0260
               46      Vir  Alpha       8 (B2)      0.0396
               50      Vir  Alpha       9 (B2)      0.0536
               56      Vir  Alpha      10 (B2)      0.0668
               71      Vir  Alpha      14 (B2)      0.1737
               47      Vir  Beta        3 (A2)      0.0426
               51      Vir  Beta        4 (A2)      0.0553
               64      Vir  Beta        5 (A2)      0.1009
               42      Vir  Beta        7 (B2)      0.0260
               46      Vir  Beta        8 (B2)      0.0396
               50      Vir  Beta        9 (B2)      0.0536
               56      Vir  Beta       10 (B2)      0.0668
               71      Vir  Beta       14 (B2)      0.1737


 EOMEE transition 4/B1
 Total energy = -2803.51890931 a.u.  Excitation energy = 9.8852 eV.
 R1^2 = 1.0000  Res^2 = 4.13e-06
 Conv-d = yes

 Amplitude    Transitions between orbitals
  0.6291       6 (B2) A                  ->    3 (A2) A                   
  0.6291       6 (B2) B                  ->    3 (A2) B                   
  0.1696       2 (A2) A                  ->    7 (B2) A                   
  0.1696       2 (A2) B                  ->    7 (B2) B                   
 -0.1390       2 (A2) A                  ->    8 (B2) A                   
 -0.1390       2 (A2) B                  ->    8 (B2) B                   
  0.1354       6 (B2) A                  ->    4 (A2) A                   
  0.1354       6 (B2) B                  ->    4 (A2) B                   
  0.1198       6 (B2) A                  ->    6 (A2) A                   
  0.1198       6 (B2) B                  ->    6 (A2) B                   

              Summary of significant orbitals:

               Number  Type             Irrep      Energy
               37      Occ  Alpha       2 (A2)     -0.3538
               38      Occ  Alpha       6 (B2)     -0.3350
               37      Occ  Beta        2 (A2)     -0.3538
               38      Occ  Beta        6 (B2)     -0.3350
               47      Vir  Alpha       3 (A2)      0.0426
               51      Vir  Alpha       4 (A2)      0.0553
               73      Vir  Alpha       6 (A2)      0.1793
               42      Vir  Alpha       7 (B2)      0.0260
               46      Vir  Alpha       8 (B2)      0.0396
               47      Vir  Beta        3 (A2)      0.0426
               51      Vir  Beta        4 (A2)      0.0553
               73      Vir  Beta        6 (A2)      0.1793
               42      Vir  Beta        7 (B2)      0.0260
               46      Vir  Beta        8 (B2)      0.0396


 EOMEE transition 5/B1
 Total energy = -2803.51716485 a.u.  Excitation energy = 9.9326 eV.
 R1^2 = 1.0000  Res^2 = 3.40e-05
 Conv-d = yes

 Amplitude    Transitions between orbitals
 -0.2959       11 (B1) A                 ->    20 (A1) A                  
 -0.2959       11 (B1) B                 ->    20 (A1) B                  
 -0.2526       11 (B1) A                 ->    26 (A1) A                  
 -0.2526       11 (B1) B                 ->    26 (A1) B                  
  0.2352       11 (B1) A                 ->    31 (A1) A                  
  0.2352       11 (B1) B                 ->    31 (A1) B                  
 -0.2216       11 (B1) A                 ->    21 (A1) A                  
 -0.2216       11 (B1) B                 ->    21 (A1) B                  
 -0.2129       11 (B1) A                 ->    32 (A1) A                  
 -0.2129       11 (B1) B                 ->    32 (A1) B                  
 -0.1986       11 (B1) A                 ->    28 (A1) A                  
 -0.1986       11 (B1) B                 ->    28 (A1) B                  
 -0.1531       11 (B1) A                 ->    33 (A1) A                  
 -0.1531       11 (B1) B                 ->    33 (A1) B                  
  0.1503       11 (B1) A                 ->    25 (A1) A                  
  0.1503       11 (B1) B                 ->    25 (A1) B                  
  0.1251       11 (B1) A                 ->    24 (A1) A                  
  0.1251       11 (B1) B                 ->    24 (A1) B                  
 -0.1083       6 (B2) A                  ->    3 (A2) A                   
 -0.1083       6 (B2) B                  ->    3 (A2) B                   
 -0.1043       11 (B1) A                 ->    22 (A1) A                  
 -0.1043       11 (B1) B                 ->    22 (A1) B                  
 -0.1026       11 (B1) A                 ->    27 (A1) A                  
 -0.1026       11 (B1) B                 ->    27 (A1) B                  

              Summary of significant orbitals:

               Number  Type             Irrep      Energy
               36      Occ  Alpha      11 (B1)     -0.4171
               38      Occ  Alpha       6 (B2)     -0.3350
               36      Occ  Beta       11 (B1)     -0.4171
               38      Occ  Beta        6 (B2)     -0.3350
               39      Vir  Alpha      20 (A1)      0.0132
               41      Vir  Alpha      21 (A1)      0.0204
               44      Vir  Alpha      22 (A1)      0.0297
               49      Vir  Alpha      24 (A1)      0.0478
               52      Vir  Alpha      25 (A1)      0.0587
               54      Vir  Alpha      26 (A1)      0.0654
               57      Vir  Alpha      27 (A1)      0.0687
               60      Vir  Alpha      28 (A1)      0.0816
               67      Vir  Alpha      31 (A1)      0.1233
               68      Vir  Alpha      32 (A1)      0.1397
               72      Vir  Alpha      33 (A1)      0.1769
               47      Vir  Alpha       3 (A2)      0.0426
               39      Vir  Beta       20 (A1)      0.0132
               41      Vir  Beta       21 (A1)      0.0204
               44      Vir  Beta       22 (A1)      0.0297
               49      Vir  Beta       24 (A1)      0.0478
               52      Vir  Beta       25 (A1)      0.0587
               54      Vir  Beta       26 (A1)      0.0654
               57      Vir  Beta       27 (A1)      0.0687
               60      Vir  Beta       28 (A1)      0.0816
               67      Vir  Beta       31 (A1)      0.1233
               68      Vir  Beta       32 (A1)      0.1397
               72      Vir  Beta       33 (A1)      0.1769
               47      Vir  Beta        3 (A2)      0.0426


 EOMEE transition 6/B1
 Total energy = -2803.50208622 a.u.  Excitation energy = 10.3430 eV.
 R1^2 = 1.0000  Res^2 = 6.21e-06
 Conv-d = yes

 Amplitude    Transitions between orbitals
  0.4220       6 (B2) A                  ->    4 (A2) A                   
  0.4220       6 (B2) B                  ->    4 (A2) B                   
 -0.3604       2 (A2) A                  ->    8 (B2) A                   
 -0.3604       2 (A2) B                  ->    8 (B2) B                   
  0.2823       2 (A2) A                  ->    12 (B2) A                  
  0.2823       2 (A2) B                  ->    12 (B2) B                  
 -0.1917       6 (B2) A                  ->    3 (A2) A                   
 -0.1917       6 (B2) B                  ->    3 (A2) B                   
 -0.1451       2 (A2) A                  ->    9 (B2) A                   
 -0.1451       2 (A2) B                  ->    9 (B2) B                   
  0.1281       6 (B2) A                  ->    5 (A2) A                   
  0.1281       6 (B2) B                  ->    5 (A2) B                   

              Summary of significant orbitals:

               Number  Type             Irrep      Energy
               37      Occ  Alpha       2 (A2)     -0.3538
               38      Occ  Alpha       6 (B2)     -0.3350
               37      Occ  Beta        2 (A2)     -0.3538
               38      Occ  Beta        6 (B2)     -0.3350
               47      Vir  Alpha       3 (A2)      0.0426
               51      Vir  Alpha       4 (A2)      0.0553
               64      Vir  Alpha       5 (A2)      0.1009
               46      Vir  Alpha       8 (B2)      0.0396
               50      Vir  Alpha       9 (B2)      0.0536
               63      Vir  Alpha      12 (B2)      0.0997
               47      Vir  Beta        3 (A2)      0.0426
               51      Vir  Beta        4 (A2)      0.0553
               64      Vir  Beta        5 (A2)      0.1009
               46      Vir  Beta        8 (B2)      0.0396
               50      Vir  Beta        9 (B2)      0.0536
               63      Vir  Beta       12 (B2)      0.0997


 EOMEE transition 7/B1
 Total energy = -2803.49306308 a.u.  Excitation energy = 10.5885 eV.
 R1^2 = 1.0000  Res^2 = 1.30e-05
 Conv-d = yes

 Amplitude    Transitions between orbitals
  0.4312       2 (A2) A                  ->    8 (B2) A                   
  0.4312       2 (A2) B                  ->    8 (B2) B                   
  0.4225       6 (B2) A                  ->    4 (A2) A                   
  0.4225       6 (B2) B                  ->    4 (A2) B                   
 -0.1998       6 (B2) A                  ->    5 (A2) A                   
 -0.1998       6 (B2) B                  ->    5 (A2) B                   
  0.1683       2 (A2) A                  ->    10 (B2) A                  
  0.1683       2 (A2) B                  ->    10 (B2) B                  
  0.1485       2 (A2) A                  ->    7 (B2) A                   
  0.1485       2 (A2) B                  ->    7 (B2) B                   
  0.1201       2 (A2) A                  ->    9 (B2) A                   
  0.1201       2 (A2) B                  ->    9 (B2) B                   

              Summary of significant orbitals:

               Number  Type             Irrep      Energy
               37      Occ  Alpha       2 (A2)     -0.3538
               38      Occ  Alpha       6 (B2)     -0.3350
               37      Occ  Beta        2 (A2)     -0.3538
               38      Occ  Beta        6 (B2)     -0.3350
               51      Vir  Alpha       4 (A2)      0.0553
               64      Vir  Alpha       5 (A2)      0.1009
               42      Vir  Alpha       7 (B2)      0.0260
               46      Vir  Alpha       8 (B2)      0.0396
               50      Vir  Alpha       9 (B2)      0.0536
               56      Vir  Alpha      10 (B2)      0.0668
               51      Vir  Beta        4 (A2)      0.0553
               64      Vir  Beta        5 (A2)      0.1009
               42      Vir  Beta        7 (B2)      0.0260
               46      Vir  Beta        8 (B2)      0.0396
               50      Vir  Beta        9 (B2)      0.0536
               56      Vir  Beta       10 (B2)      0.0668


 EOMEE transition 8/B1
 Total energy = -2803.48372218 a.u.  Excitation energy = 10.8427 eV.
 R1^2 = 1.0000  Res^2 = 2.13e-06
 Conv-d = yes

 Amplitude    Transitions between orbitals
  0.3622       2 (A2) A                  ->    12 (B2) A                  
  0.3622       2 (A2) B                  ->    12 (B2) B                  
  0.3290       6 (B2) A                  ->    5 (A2) A                   
  0.3290       6 (B2) B                  ->    5 (A2) B                   
  0.2818       2 (A2) A                  ->    7 (B2) A                   
  0.2818       2 (A2) B                  ->    7 (B2) B                   
  0.2577       2 (A2) A                  ->    8 (B2) A                   
  0.2577       2 (A2) B                  ->    8 (B2) B                   
[...]

 ------------------------------------------------------------------------------
 State A: eomee_ccsd/rhfref/singlets: 1/B2
 State B: cvs_eomee_ccsd/rhfref/singlets: 5/A2
 Transition dipole moment (a.u.):
   A->B: 0.000045 (X -0.000045, Y 0.000000, Z 0.000000)
   B->A: 0.000040 (X -0.000040, Y 0.000000, Z 0.000000)
 Oscillator strength (a.u.): 0.000000
 Norm of one-particle transition density matrix:
   A->B: 0.003956;   B->A: 0.004140
   ||gamma^AB||*||gamma^BA||: 0.000016

 ------------------------------------------------------------------------------
 State A: eomee_ccsd/rhfref/singlets: 1/B2
 State B: cvs_eomee_ccsd/rhfref/singlets: 1/B1
 Transition dipole moment (a.u.):
   A->B: 0.000000 (X 0.000000, Y 0.000000, Z 0.000000)
   B->A: 0.000000 (X 0.000000, Y 0.000000, Z 0.000000)
 Oscillator strength (a.u.): 0.000000
 Norm of one-particle transition density matrix:
   A->B: 0.010911;   B->A: 0.003470
   ||gamma^AB||*||gamma^BA||: 0.000038

 ------------------------------------------------------------------------------
 State A: eomee_ccsd/rhfref/singlets: 1/B2
 State B: cvs_eomee_ccsd/rhfref/singlets: 2/B1
 Transition dipole moment (a.u.):
   A->B: 0.000000 (X 0.000000, Y 0.000000, Z 0.000000)
   B->A: 0.000000 (X 0.000000, Y 0.000000, Z 0.000000)
 Oscillator strength (a.u.): 0.000000
 Norm of one-particle transition density matrix:
   A->B: 0.004870;   B->A: 0.001381
   ||gamma^AB||*||gamma^BA||: 0.000007

 ------------------------------------------------------------------------------
 State A: eomee_ccsd/rhfref/singlets: 1/B2
 State B: cvs_eomee_ccsd/rhfref/singlets: 3/B1
 Transition dipole moment (a.u.):
   A->B: 0.000000 (X 0.000000, Y 0.000000, Z 0.000000)
   B->A: 0.000000 (X 0.000000, Y 0.000000, Z 0.000000)
 Oscillator strength (a.u.): 0.000000
 Norm of one-particle transition density matrix:
   A->B: 0.006049;   B->A: 0.001458
   ||gamma^AB||*||gamma^BA||: 0.000009

 ------------------------------------------------------------------------------
 State A: eomee_ccsd/rhfref/singlets: 1/B2
 State B: cvs_eomee_ccsd/rhfref/singlets: 4/B1
 Transition dipole moment (a.u.):
   A->B: 0.000000 (X 0.000000, Y 0.000000, Z 0.000000)
   B->A: 0.000000 (X 0.000000, Y 0.000000, Z 0.000000)
 Oscillator strength (a.u.): -0.000000
 Norm of one-particle transition density matrix:
   A->B: 0.002524;   B->A: 0.002132
   ||gamma^AB||*||gamma^BA||: 0.000005

 ------------------------------------------------------------------------------
 State A: eomee_ccsd/rhfref/singlets: 1/B2
 State B: cvs_eomee_ccsd/rhfref/singlets: 5/B1
 Transition dipole moment (a.u.):
   A->B: 0.000000 (X 0.000000, Y 0.000000, Z 0.000000)
   B->A: 0.000000 (X 0.000000, Y 0.000000, Z 0.000000)
 Oscillator strength (a.u.): 0.000000
 Norm of one-particle transition density matrix:
   A->B: 0.002668;   B->A: 0.001301
   ||gamma^AB||*||gamma^BA||: 0.000003

 ------------------------------------------------------------------------------
 State A: eomee_ccsd/rhfref/singlets: 1/B2
 State B: cvs_eomee_ccsd/rhfref/singlets: 1/B2
 Transition dipole moment (a.u.):
   A->B: 0.001537 (X 0.000000, Y 0.000000, Z -0.001537)
   B->A: 0.000037 (X 0.000000, Y 0.000000, Z -0.000037)
 Oscillator strength (a.u.): 0.000000
 Norm of one-particle transition density matrix:
   A->B: 0.027608;   B->A: 0.006964
   ||gamma^AB||*||gamma^BA||: 0.000192

 ------------------------------------------------------------------------------
 State A: eomee_ccsd/rhfref/singlets: 1/B2
 State B: cvs_eomee_ccsd/rhfref/singlets: 2/B2
 Transition dipole moment (a.u.):
   A->B: 0.000275 (X 0.000000, Y 0.000000, Z 0.000275)
   B->A: 0.000247 (X 0.000000, Y 0.000000, Z 0.000247)
 Oscillator strength (a.u.): 0.000000
 Norm of one-particle transition density matrix:
   A->B: 0.004311;   B->A: 0.004781
   ||gamma^AB||*||gamma^BA||: 0.000021

 ------------------------------------------------------------------------------
 State A: eomee_ccsd/rhfref/singlets: 1/B2
 State B: cvs_eomee_ccsd/rhfref/singlets: 3/B2
 Transition dipole moment (a.u.):
   A->B: 0.000334 (X 0.000000, Y 0.000000, Z -0.000334)
   B->A: 0.000236 (X 0.000000, Y 0.000000, Z -0.000236)
 Oscillator strength (a.u.): 0.000001
 Norm of one-particle transition density matrix:
   A->B: 0.003285;   B->A: 0.002742
   ||gamma^AB||*||gamma^BA||: 0.000009

 ------------------------------------------------------------------------------
 State A: eomee_ccsd/rhfref/singlets: 1/B2
 State B: cvs_eomee_ccsd/rhfref/singlets: 4/B2
 Transition dipole moment (a.u.):
   A->B: 0.000012 (X 0.000000, Y 0.000000, Z 0.000012)
   B->A: 0.000033 (X 0.000000, Y 0.000000, Z 0.000033)
 Oscillator strength (a.u.): 0.000000
 Norm of one-particle transition density matrix:
   A->B: 0.003360;   B->A: 0.003757
   ||gamma^AB||*||gamma^BA||: 0.000013

 ------------------------------------------------------------------------------
 State A: eomee_ccsd/rhfref/singlets: 1/B2
 State B: cvs_eomee_ccsd/rhfref/singlets: 5/B2
 Transition dipole moment (a.u.):
   A->B: 0.000280 (X 0.000000, Y 0.000000, Z 0.000280)
   B->A: 0.000147 (X 0.000000, Y 0.000000, Z 0.000147)
 Oscillator strength (a.u.): 0.000000
 Norm of one-particle transition density matrix:
   A->B: 0.002863;   B->A: 0.002332
   ||gamma^AB||*||gamma^BA||: 0.000007


 All requested transition properties have been computed

 Transition Properties:   CPU 11267.83 s  wall 1193.55 s

 Total ccman2 time:   CPU 159073.39 s  wall 18817.80 s

 75 A1   53 B1   17 A2   33 B2   54 B1   34 B2   76 A1   18 A2                 
  2.676   2.742   2.796   2.796   2.849   2.929   2.972   2.991
 55 B1   77 A1   78 A1   56 B1   57 B1   79 A1   80 A1   81 A1                 
  3.009   3.022   3.031   3.039   3.069   3.161   3.186   3.193
 58 B1   82 A1   83 A1   59 B1   35 B2   84 A1   36 B2   60 B1                 
  3.193   3.280   3.286   3.319   3.472   3.530   3.563   3.756
 19 A2   37 B2   20 A2   61 B1   38 B2   85 A1   62 B1   63 B1                 
  3.780   3.899   3.921   4.018   4.139   4.383   4.438   4.501
 86 A1   64 B1   87 A1   88 A1   89 A1   65 B1   90 A1   91 A1                 
  4.515   4.558   4.609   4.637   4.789   4.960   5.114   5.261
 66 B1   21 A2   92 A1   39 B2   67 B1   93 A1   94 A1   68 B1                 
  5.439   5.446   5.759   5.778   6.183   7.393   8.256   8.348
 95 A1   69 B1   96 A1   70 B1   97 A1   98 A1   40 B2   71 B1                 
  8.448  20.615  20.685  20.706  20.824  20.851  21.124  49.625
 99 A1  100 A1  101 A1   72 B1  102 A1   73 B1  103 A1  104 A1                 
 80.185  80.258  80.280  80.379  80.404  80.610 293.938 294.033
105 A1  106 A1   74 B1  107 A1   75 B1  108 A1   41 B2   76 B1                 
294.152 322.027 322.095 322.116 322.200 322.221 322.3881028.598
109 A1  110 A1  111 A1   77 B1  112 A1   78 B1  113 A1  114 A1                 
*******1431.6581431.6781431.7481431.7671431.9068749.8358749.890
115 A1  116 A1   79 B1  117 A1   80 B1  118 A1  119 A1  120 A1                 
*******8749.9638749.9808750.091
 81 B1  121 A1   82 B1  122 A1                                                 

 --------------------------------------------------------------
             Orbital Energies (a.u.) and Symmetries
 --------------------------------------------------------------

 Alpha MOs, Restricted
 -- Occupied --                  
-490.03  -65.16  -58.52  -58.52  -58.52  -11.30  -11.26  -11.26
  1 A1    2 A1    3 A1    1 B2    1 B1    4 A1    2 B1    5 A1                 
-11.254 -11.254 -11.251  -9.840  -7.454  -7.445  -7.445  -3.193
  6 A1    3 B1    7 A1    8 A1    9 A1    4 B1    2 B2   10 A1                 
 -3.189  -3.189  -3.179  -3.179  -1.180  -1.076  -1.036  -0.977
  3 B2    5 B1   11 A1    1 A2   12 A1   13 A1    6 B1   14 A1                 
 -0.849  -0.820  -0.714  -0.648  -0.647  -0.608  -0.578  -0.535
  7 B1   15 A1   16 A1    8 B1   17 A1    9 B1   18 A1    4 B2                 
 -0.518  -0.496  -0.440  -0.417  -0.354  -0.335
 10 B1   19 A1    5 B2   11 B1    2 A2    6 B2                                 
 -- Virtual --                   
  0.013   0.020   0.020   0.026   0.029   0.030   0.037   0.040
 20 A1   12 B1   21 A1    7 B2   13 B1   22 A1   23 A1    8 B2                 
  0.043   0.047   0.048   0.054   0.055   0.059   0.063   0.065
  3 A2   14 B1   24 A1    9 B2    4 A2   25 A1   15 B1   26 A1                 
  0.067   0.067   0.069   0.069   0.076   0.082   0.087   0.091
 16 B1   10 B2   27 A1   11 B2   17 B1   28 A1   29 A1   18 B1                 
  0.100   0.101   0.101   0.119   0.123   0.140   0.156   0.165
 12 B2    5 A2   30 A1   19 B1   31 A1   32 A1   13 B2   20 B1                 
  0.174   0.177   0.179   0.196   0.198   0.203   0.207   0.214
 14 B2   33 A1    6 A2   34 A1   21 B1   35 A1   15 B2   36 A1                 
  0.223   0.225   0.229   0.229   0.231   0.241   0.245   0.247
 22 B1   16 B2   37 A1   23 B1    7 A2   38 A1   17 B2   24 B1                 
  0.252   0.254   0.263   0.278   0.289   0.293   0.314   0.337
 39 A1   25 B1   40 A1   41 A1   26 B1   27 B1   42 A1   28 B1                 
  0.342   0.353   0.377   0.413   0.416   0.433   0.442   0.487
 43 A1   18 B2   44 A1   45 A1   29 B1   30 B1   46 A1   47 A1                 
  0.494   0.511   0.512   0.606   0.615   0.619   0.645   0.647
 31 B1   32 B1   48 A1   49 A1   33 B1   19 B2   34 B1   50 A1                 
  0.716   0.729   0.736   0.737   0.741   0.747   0.766   0.774
 51 A1   35 B1   20 B2   36 B1   52 A1   21 B2    8 A2   53 A1                 
  0.787   0.787   0.805   0.824   0.829   0.866   0.888   0.897
  9 A2   37 B1   22 B2   54 A1   10 A2   23 B2   55 A1   56 A1                 
  0.924   0.925   0.935   0.939   0.960   0.985   1.012   1.031
 38 B1   24 B2   57 A1   39 B1   58 A1   59 A1   40 B1   60 A1                 
  1.059   1.069   1.097   1.098   1.112   1.126   1.177   1.203
 41 B1   61 A1   42 B1   62 A1   63 A1   43 B1   44 B1   25 B2                 
  1.203   1.231   1.286   1.293   1.308   1.345   1.374   1.472
 64 A1   11 A2   65 A1   45 B1   12 A2   26 B2   13 A2   66 A1                 
  1.525   1.614   1.725   1.776   1.785   1.817   1.823   1.831
 27 B2   67 A1   46 B1   68 A1   47 B1   69 A1   28 B2   14 A2                 
  1.881   1.905   1.907   1.947   1.990   2.006   2.042   2.102
 29 B2   70 A1   48 B1   71 A1   49 B1   30 B2   15 A2   50 B1                 
  2.147   2.217   2.218   2.219   2.235   2.248   2.272   2.320
 72 A1   51 B1   31 B2   16 A2   52 B1   73 A1   32 B2   74 A1                 
  2.345   2.352   2.366   2.375   2.443   2.594   2.614   2.645
 75 A1   53 B1   17 A2   33 B2   54 B1   34 B2   76 A1   18 A2                 
  2.676   2.742   2.796   2.796   2.849   2.929   2.972   2.991
 55 B1   77 A1   78 A1   56 B1   57 B1   79 A1   80 A1   81 A1                 
  3.009   3.022   3.031   3.039   3.069   3.161   3.186   3.193
 58 B1   82 A1   83 A1   59 B1   35 B2   84 A1   36 B2   60 B1                 
  3.193   3.280   3.286   3.319   3.472   3.530   3.563   3.756
 19 A2   37 B2   20 A2   61 B1   38 B2   85 A1   62 B1   63 B1                 
  3.780   3.899   3.921   4.018   4.139   4.383   4.438   4.501
 86 A1   64 B1   87 A1   88 A1   89 A1   65 B1   90 A1   91 A1                 
  4.515   4.558   4.609   4.637   4.789   4.960   5.114   5.261
 66 B1   21 A2   92 A1   39 B2   67 B1   93 A1   94 A1   68 B1                 
  5.439   5.446   5.759   5.778   6.183   7.393   8.256   8.348
 95 A1   69 B1   96 A1   70 B1   97 A1   98 A1   40 B2   71 B1                 
  8.448  20.615  20.685  20.706  20.824  20.851  21.124  49.625
 99 A1  100 A1  101 A1   72 B1  102 A1   73 B1  103 A1  104 A1                 
 80.185  80.258  80.280  80.379  80.404  80.610 293.938 294.033
105 A1  106 A1   74 B1  107 A1   75 B1  108 A1   41 B2   76 B1                 
294.152 322.027 322.095 322.116 322.200 322.221 322.3881028.598
109 A1  110 A1  111 A1   77 B1  112 A1   78 B1  113 A1  114 A1                 
*******1431.6581431.6781431.7481431.7671431.9068749.8358749.890
115 A1  116 A1   79 B1  117 A1   80 B1  118 A1  119 A1  120 A1                 
*******8749.9638749.9808750.091
 81 B1  121 A1   82 B1  122 A1                                                 

 Beta MOs, Restricted
 -- Occupied --                  
-490.03  -65.16  -58.52  -58.52  -58.52  -11.30  -11.26  -11.26
  1 A1    2 A1    3 A1    1 B2    1 B1    4 A1    2 B1    5 A1                 
-11.254 -11.254 -11.251  -9.840  -7.454  -7.445  -7.445  -3.193
  6 A1    3 B1    7 A1    8 A1    9 A1    4 B1    2 B2   10 A1                 
 -3.189  -3.189  -3.179  -3.179  -1.180  -1.076  -1.036  -0.977
  3 B2    5 B1   11 A1    1 A2   12 A1   13 A1    6 B1   14 A1                 
 -0.849  -0.820  -0.714  -0.648  -0.647  -0.608  -0.578  -0.535
  7 B1   15 A1   16 A1    8 B1   17 A1    9 B1   18 A1    4 B2                 
 -0.518  -0.496  -0.440  -0.417  -0.354  -0.335
 10 B1   19 A1    5 B2   11 B1    2 A2    6 B2                                 
 -- Virtual --                   
  0.013   0.020   0.020   0.026   0.029   0.030   0.037   0.040
 20 A1   12 B1   21 A1    7 B2   13 B1   22 A1   23 A1    8 B2                 
  0.043   0.047   0.048   0.054   0.055   0.059   0.063   0.065
  3 A2   14 B1   24 A1    9 B2    4 A2   25 A1   15 B1   26 A1                 
  0.067   0.067   0.069   0.069   0.076   0.082   0.087   0.091
 16 B1   10 B2   27 A1   11 B2   17 B1   28 A1   29 A1   18 B1                 
  0.100   0.101   0.101   0.119   0.123   0.140   0.156   0.165
 12 B2    5 A2   30 A1   19 B1   31 A1   32 A1   13 B2   20 B1                 
  0.174   0.177   0.179   0.196   0.198   0.203   0.207   0.214
 14 B2   33 A1    6 A2   34 A1   21 B1   35 A1   15 B2   36 A1                 
  0.223   0.225   0.229   0.229   0.231   0.241   0.245   0.247
 22 B1   16 B2   37 A1   23 B1    7 A2   38 A1   17 B2   24 B1                 
  0.252   0.254   0.263   0.278   0.289   0.293   0.314   0.337
 39 A1   25 B1   40 A1   41 A1   26 B1   27 B1   42 A1   28 B1                 
  0.342   0.353   0.377   0.413   0.416   0.433   0.442   0.487
 43 A1   18 B2   44 A1   45 A1   29 B1   30 B1   46 A1   47 A1                 
  0.494   0.511   0.512   0.606   0.615   0.619   0.645   0.647
 31 B1   32 B1   48 A1   49 A1   33 B1   19 B2   34 B1   50 A1                 
  0.716   0.729   0.736   0.737   0.741   0.747   0.766   0.774
 51 A1   35 B1   20 B2   36 B1   52 A1   21 B2    8 A2   53 A1                 
  0.787   0.787   0.805   0.824   0.829   0.866   0.888   0.897
  9 A2   37 B1   22 B2   54 A1   10 A2   23 B2   55 A1   56 A1                 
  0.924   0.925   0.935   0.939   0.960   0.985   1.012   1.031
 38 B1   24 B2   57 A1   39 B1   58 A1   59 A1   40 B1   60 A1                 
  1.059   1.069   1.097   1.098   1.112   1.126   1.177   1.203
 41 B1   61 A1   42 B1   62 A1   63 A1   43 B1   44 B1   25 B2                 
  1.203   1.231   1.286   1.293   1.308   1.345   1.374   1.472
 64 A1   11 A2   65 A1   45 B1   12 A2   26 B2   13 A2   66 A1                 
  1.525   1.614   1.725   1.776   1.785   1.817   1.823   1.831
 27 B2   67 A1   46 B1   68 A1   47 B1   69 A1   28 B2   14 A2                 
  1.881   1.905   1.907   1.947   1.990   2.006   2.042   2.102
 29 B2   70 A1   48 B1   71 A1   49 B1   30 B2   15 A2   50 B1                 
  2.147   2.217   2.218   2.219   2.235   2.248   2.272   2.320
 72 A1   51 B1   31 B2   16 A2   52 B1   73 A1   32 B2   74 A1                 
  2.345   2.352   2.366   2.375   2.443   2.594   2.614   2.645
 75 A1   53 B1   17 A2   33 B2   54 B1   34 B2   76 A1   18 A2                 
  2.676   2.742   2.796   2.796   2.849   2.929   2.972   2.991
 55 B1   77 A1   78 A1   56 B1   57 B1   79 A1   80 A1   81 A1                 
  3.009   3.022   3.031   3.039   3.069   3.161   3.186   3.193
 58 B1   82 A1   83 A1   59 B1   35 B2   84 A1   36 B2   60 B1                 
  3.193   3.280   3.286   3.319   3.472   3.530   3.563   3.756
 19 A2   37 B2   20 A2   61 B1   38 B2   85 A1   62 B1   63 B1                 
  3.780   3.899   3.921   4.018   4.139   4.383   4.438   4.501
 86 A1   64 B1   87 A1   88 A1   89 A1   65 B1   90 A1   91 A1                 
  4.515   4.558   4.609   4.637   4.789   4.960   5.114   5.261
 66 B1   21 A2   92 A1   39 B2   67 B1   93 A1   94 A1   68 B1                 
  5.439   5.446   5.759   5.778   6.183   7.393   8.256   8.348
 95 A1   69 B1   96 A1   70 B1   97 A1   98 A1   40 B2   71 B1                 
  8.448  20.615  20.685  20.706  20.824  20.851  21.124  49.625
 99 A1  100 A1  101 A1   72 B1  102 A1   73 B1  103 A1  104 A1                 
 80.185  80.258  80.280  80.379  80.404  80.610 293.938 294.033
105 A1  106 A1   74 B1  107 A1   75 B1  108 A1   41 B2   76 B1                 
294.152 322.027 322.095 322.116 322.200 322.221 322.3881028.598
109 A1  110 A1  111 A1   77 B1  112 A1   78 B1  113 A1  114 A1                 
*******1431.6581431.6781431.7481431.7671431.9068749.8358749.890
115 A1  116 A1   79 B1  117 A1   80 B1  118 A1  119 A1  120 A1                 
*******8749.9638749.9808750.091
 81 B1  121 A1   82 B1  122 A1                                                 
 --------------------------------------------------------------

          Ground-State Mulliken Net Atomic Charges

     Atom                 Charge (a.u.)
  ----------------------------------------
      1 H                     0.259552
      2 C                    -0.225772
      3 C                    -0.163465
      4 H                     0.227419
      5 C                    -0.415497
      6 H                     0.187829
      7 C                    -0.163465
      8 H                     0.227419
      9 C                    -0.225772
     10 H                     0.259552
     11 C                     0.385991
     12 Br                   -0.353791
  ----------------------------------------
Archival summary:
1\1\n-62-29-8\SP\ProcedureUnspecified\BasisUnspecified\r165\malop\MonDec3102:30:552018MonDec3102:30:552018\0\\#,ProcedureUnspecified,BasisUnspecified,\\0,1\Br\C,1,1.884\C,2,1.3922,1,119.37\H,3,1.0802,2,120.072,1,-0,0\C,2,1.3922,1,119.37,3,-180,0\H,5,1.0802,2,120.072,1,-0,0\C,3,1.39311,2,119.031,1,180,0\H,7,1.08133,3,119.353,2,180,0\C,5,1.39311,2,119.031,1,-180,0\H,9,1.08133,5,119.353,2,-180,0\C,7,1.39319,3,120.463,2,0,0\H,11,1.08081,7,120.124,3,180,0\\HF=-2802.54028\\@

 Total job time:  18908.78s(wall), 159675.32s(cpu) 
 Mon Dec 31 02:30:55 2018

        *************************************************************
        *                                                           *
        *  Thank you very much for using Q-Chem.  Have a nice day.  *
        *                                                           *
        *************************************************************


  Sum of atomic charges =     0.000000

 -----------------------------------------------------------------
                    Cartesian Multipole Moments
 -----------------------------------------------------------------
    Charge (ESU x 10^10)
                 0.0000
    Dipole Moment (Debye)
         X      -0.0000      Y       0.0000      Z      -2.0243
       Tot       2.0243
    Quadrupole Moments (Debye-Ang)
        XX     -48.3716     XY       0.0000     YY     -58.7598
        XZ       0.0000     YZ      -0.0000     ZZ     -49.5428
    Octopole Moments (Debye-Ang^2)
       XXX       0.0000    XXY       0.0000    XYY       0.0000
       YYY       0.0000    XXZ      11.2082    XYZ      -0.0000
       YYZ      26.3115    XZZ      -0.0000    YZZ       0.0000
       ZZZ      41.1621
    Hexadecapole Moments (Debye-Ang^3)
      XXXX    -283.2336   XXXY       0.0000   XXYY     -72.3334
      XYYY       0.0000   YYYY     -72.6692   XXXZ       0.0000
      XXYZ      -0.0000   XYYZ      -0.0000   YYYZ      -0.0000
      XXZZ    -223.8748   XYZZ       0.0000   YYZZ    -222.8924
      XZZZ       0.0000   YZZZ      -0.0000   ZZZZ   -1014.6946
 -----------------------------------------------------------------
