Q-Chem Developer Version!
                  Welcome to Q-Chem
     A Quantum Leap Into The Future Of Chemistry


 Q-Chem 5.1, Q-Chem, Inc., Pleasanton, CA (2018)

 Yihan Shao,  Zhengting Gan,  E. Epifanovsky,  A. T. B. Gilbert,  M. Wormit,  
 J. Kussmann,  A. W. Lange,  A. Behn,  Jia Deng,  Xintian Feng,  D. Ghosh,  
 M. Goldey,  P. R. Horn,  L. D. Jacobson,  I. Kaliman,  T. Kus,  A. Landau,  
 Jie Liu,  E. I. Proynov,  R. M. Richard,  R. P. Steele,  E. J. Sundstrom,  
 H. L. Woodcock III,  P. M. Zimmerman,  D. Zuev,  B. Albrecht,  E. Alguire,  
 S. A. Baeppler,  D. Barton,  Z. Benda,  Y. A. Bernard,  E. J. Berquist,  
 K. B. Bravaya,  H. Burton,  D. Casanova,  Chun-Min Chang,  Yunqing Chen,  
 A. Chien,  K. D. Closser,  M. P. Coons,  S. Coriani,  S. Dasgupta,  
 A. L. Dempwolff,  M. Diedenhofen,  Hainam Do,  R. G. Edgar,  Po-Tung Fang,  
 S. Faraji,  S. Fatehi,  Qingguo Feng,  K. D. Fenk,  J. Fosso-Tande,  
 Qinghui Ge,  A. Ghysels,  G. Gidofalvi,  J. Gomes,  J. Gonthier,  A. Gunina,  
 D. Hait,  M. W. D. Hanson-Heine,  P. H. P. Harbach,  A. W. Hauser,  
 J. E. Herr,  E. G. Hohenstein,  Z. C. Holden,  Kerwin Hui,  B. C. Huynh,  
 T.-C. Jagau,  Hyunjun Ji,  B. Kaduk,  K. Khistyaev,  Jaehoon Kim,  
 P. Klunzinger,  K. Koh,  D. Kosenkov,  L. Koulias,  T. Kowalczyk,  
 C. M. Krauter,  A. Kunitsa,  Ka Un Lao,  A. Laurent,  K. V. Lawler,  
 Joonho Lee,  D. Lefrancois,  S. Lehtola,  D. S. Levine,  Yi-Pei Li,  
 You-Sheng Lin,  Fenglai Liu,  E. Livshits,  A. Luenser,  P. Manohar,  
 E. Mansoor,  S. F. Manzer,  Shan-Ping Mao,  Yuezhi Mao,  N. Mardirossian,  
 A. V. Marenich,  T. Markovich,  L. A. Martinez-Martinez,  S. A. Maurer,  
 N. J. Mayhall,  S. C. McKenzie,  J.-M. Mewes,  A. F. Morrison,  
 J. W. Mullinax,  K. Nanda,  T. S. Nguyen-Beck,  R. Olivares-Amaya,  
 J. A. Parkhill,  T. M. Perrine,  F. Plasser,  P. Pokhilko,  S. Prager,  
 A. Prociuk,  E. Ramos,  D. R. Rehn,  F. Rob,  M. Schneider,  N. Sergueev,  
 S. M. Sharada,  S. Sharma,  D. W. Small,  T. Stauch,  T. Stein,  
 Yu-Chuan Su,  A. J. W. Thom,  A. Tkatchenko,  T. Tsuchimochi,  N. M. Tubman,  
 L. Vogt,  M. L. Vidal,  O. Vydrov,  M. A. Watson,  J. Wenzel,  
 M. de Wergifosse,  T. A. Wesolowski,  A. White,  J. Witte,  A. Yamada,  
 Jun Yang,  K. Yao,  S. Yeganeh,  S. R. Yost,  Zhi-Qiang You,  A. Zech,  
 Igor Ying Zhang,  Xing Zhang,  Yan Zhao,  Ying Zhu,  B. R. Brooks,  
 G. K. L. Chan,  C. J. Cramer,  M. S. Gordon,  W. J. Hehre,  A. Klamt,  
 M. W. Schmidt,  C. D. Sherrill,  D. G. Truhlar,  A. Aspuru-Guzik,  R. Baer,  
 A. T. Bell,  N. A. Besley,  Jeng-Da Chai,  A. E. DePrince, III,  
 R. A. DiStasio Jr.,  A. Dreuw,  B. D. Dunietz,  T. R. Furlani,  
 Chao-Ping Hsu,  Yousung Jung,  Jing Kong,  D. S. Lambrecht,  WanZhen Liang,  
 C. Ochsenfeld,  V. A. Rassolov,  L. V. Slipchenko,  J. E. Subotnik,  
 T. Van Voorhis,  J. M. Herbert,  A. I. Krylov,  P. M. W. Gill,  M. Head-Gordon

 Contributors to earlier versions of Q-Chem not listed above: 
 R. D. Adamson,  B. Austin,  J. Baker,  G. J. O. Beran,  K. Brandhorst,  
 S. T. Brown,  E. F. C. Byrd,  A. K. Chakraborty,  C.-L. Cheng,  
 Siu Hung Chien,  D. M. Chipman,  D. L. Crittenden,  H. Dachsel,  
 R. J. Doerksen,  A. D. Dutoi,  L. Fusti-Molnar,  W. A. Goddard III,  
 A. Golubeva-Zadorozhnaya,  S. R. Gwaltney,  G. Hawkins,  A. Heyden,  
 S. Hirata,  G. Kedziora,  F. J. Keil,  C. Kelley,  Jihan Kim,  R. A. King,  
 R. Z. Khaliullin,  P. P. Korambath,  W. Kurlancheek,  A. M. Lee,  M. S. Lee,  
 S. V. Levchenko,  Ching Yeh Lin,  D. Liotard,  R. C. Lochan,  I. Lotan,  
 P. E. Maslen,  N. Nair,  D. P. O'Neill,  D. Neuhauser,  E. Neuscamman,  
 C. M. Oana,  R. Olson,  B. Peters,  R. Peverati,  P. A. Pieniazek,  
 Y. M. Rhee,  J. Ritchie,  M. A. Rohrdanz,  E. Rosta,  N. J. Russ,  
 H. F. Schaefer III,  N. E. Schultz,  N. Shenvi,  A. C. Simmonett,  A. Sodt,  
 D. Stuck,  K. S. Thanthiriwatte,  V. Vanovschi,  Tao Wang,  A. Warshel,  
 C. F. Williams,  Q. Wu,  X. Xu,  W. Zhang

 Please cite Q-Chem as follows:
 Y. Shao et al., Mol. Phys. 113, 184-215 (2015)
 DOI: 10.1080/00268976.2014.952696

 Q-Chem 5.1.1 for Intel X86 EM64T Linux

 Parts of Q-Chem use Armadillo 8.300.2 (Tropical Shenanigans).
 http://arma.sourceforge.net/

 Q-Chem begins on Mon Jan 21 11:24:56 2019  


Host: 0

     Scratch files written to /work1/malop/qc_7646552.hnode2//
Input Ideriv = 0
Curr. Ideriv = -1
Max.  Ideriv = 0

Checking the input file for inconsistencies... 	...done.

--------------------------------------------------------------
User input:
--------------------------------------------------------------
$comment
Optimized Cl-Bz, XAS, Cl edge 
6-311(2+,+)G** with uncontacted core on carbon only
$end

$molecule
0 1
 H        -2.1400320233    0.0000000000    0.5090177858
 C        -1.2120583232    0.0000000000   -0.0442490642
 C        -1.2042956497    0.0000000000   -1.4361358281
 H        -2.1437187877    0.0000000000   -1.9716770234
 C         0.0000000000    0.0000000000   -2.1351330277
 H         0.0000000000    0.0000000000   -3.2159870334
 C         1.2042956497    0.0000000000   -1.4361358281
 H         2.1437187877    0.0000000000   -1.9716770234
 C         1.2120583232    0.0000000000   -0.0442490642
 H         2.1400320233    0.0000000000    0.5090177858
 C         0.0000000000    0.0000000000    0.6386615242
 Cl        0.0000000000    0.0000000000    2.3695929760
$end

$rem
   JOB_TYPE  =  SP
   BASIS  =  general
   METHOD  =  EOM-CCSD
   CVS_EE_STATES = [20,0,20,20]
   eom_preconv_singles = true
   n_frozen_core = fc
   cc_trans_prop = true
   use_libqints = 1   !use new int library (will be def in trunk)
   cc_memory = 100000
   EOM_DAVIDSON_MAX_ITER 200
   EOM_DAVIDSON_MAXVECTORS = 1000
   eom_davidson_convergence = 4
$end

$basis
H    0
S    3    1.000000
   3.38650000E+01    2.54938000E-02 
   5.09479000E+00    1.90373000E-01 
   1.15879000E+00    8.52161000E-01 
S    1    1.000000
   3.25840000E-01    1.00000000E+00 
S    1    1.000000
   1.02741000E-01    1.00000000E+00 
S    1    1.000000
   3.60000000E-02    1.00000000E+00 
P    1    1.000000
   7.50000000E-01    1.00000000E+00 
****
C    0
S    1    1.000000
   4.56324000E+03    1.96665000E-03 
S    1    1.000000
   6.82024000E+02    1.52306000E-02 
S    1    1.000000
   1.54973000E+02    7.61269000E-02 
S    1    1.000000
   4.44553000E+01    2.60801000E-01 
S    1    1.000000
   1.30290000E+01    6.16462000E-01 
S    1    1.000000
   1.82773000E+00    2.21006000E-01 
SP   3    1.000000
   2.09642000E+01    1.14660000E-01   4.02487000E-02 
   4.80331000E+00    9.19999000E-01   2.37594000E-01 
   1.45933000E+00   -3.03068000E-03   8.15854000E-01 
SP   1    1.000000
   4.83456000E-01    1.00000000E+00   1.00000000E+00 
SP   1    1.000000
   1.45585000E-01    1.00000000E+00   1.00000000E+00 
SP   1    1.000000
   4.38000000E-02    1.00000000E+00   1.00000000E+00 
SP   1    1.000000
   1.31927711E-02    1.00000000E+00   1.00000000E+00 
D    1    1.000000
   6.26000000E-01    1.00000000E+00 
****
Cl   0
S    6    1.000000
   1.05819000E+05    7.38000000E-04 
   1.58720000E+04    5.71800000E-03 
   3.61965000E+03    2.94950000E-02 
   1.03080000E+03    1.17286000E-01 
   3.39908000E+02    3.62949000E-01 
   1.24538000E+02    5.84149000E-01 
S    3    1.000000
   1.24538000E+02    1.34177000E-01 
   4.95135000E+01    6.24250000E-01 
   2.08056000E+01    2.91756000E-01 
S    1    1.000000
   6.58346000E+00    1.00000000E+00 
S    1    1.000000
   2.56468000E+00    1.00000000E+00 
S    1    1.000000
   5.59763000E-01    1.00000000E+00 
S    1    1.000000
   1.83273000E-01    1.00000000E+00 
P    5    1.000000
   5.89776000E+02    2.39100000E-03 
   1.39849000E+02    1.85040000E-02 
   4.51413000E+01    8.13770000E-02 
   1.68733000E+01    2.21552000E-01 
   6.74110000E+00    7.72569000E-01 
P    2    1.000000
   6.74110000E+00   -1.57224400E+00 
   2.77152000E+00    9.92389000E-01 
P    1    1.000000
   1.02387000E+00    1.00000000E+00 
P    1    1.000000
   3.81368000E-01    1.00000000E+00 
P    1    1.000000
   1.09437000E-01    1.00000000E+00 
SP   1    1.000000
   4.83000000E-02    1.00000000E+00   1.00000000E+00 
SP   1    1.000000
   1.45481928E-02    1.00000000E+00   1.00000000E+00 
D    1    1.000000
   7.50000000E-01    1.00000000E+00 
****
$end

--------------------------------------------------------------

 Q-Chem warning in module forms1/BasisType.C, line 1761:

 Setting pure/cartesian flag to 2111 for general basis


 Requested basis set is non-standard
 There are 111 shells and 255 basis functions
MEM_TOTAL is adjusted to CC_MEMORY + MEM_STATIC!
 Total memory of 100192MB is distributed as follows: 
   QALLOC including MEM_STATIC uses 192MB
   MEM_STATIC is set to 192MB
   CCMAN JOB total memory use is  100000MB
 Warning: actual memory use might exceed 100192MB

 Total QAlloc Memory Limit    192 MB
 Mega-Array Size       188 MB
 MEM_STATIC part       192 MB
 ----------------------------------------------------------------
             Standard Nuclear Orientation (Angstroms)
    I     Atom           X                Y                Z
 ----------------------------------------------------------------
    1      H      -2.1400320233     0.0000000000     0.3814604176
    2      C      -1.2120583232     0.0000000000    -0.1718064324
    3      C      -1.2042956497     0.0000000000    -1.5636931963
    4      H      -2.1437187877     0.0000000000    -2.0992343916
    5      C      -0.0000000000     0.0000000000    -2.2626903959
    6      H      -0.0000000000     0.0000000000    -3.3435444016
    7      C       1.2042956497     0.0000000000    -1.5636931963
    8      H       2.1437187877     0.0000000000    -2.0992343916
    9      C       1.2120583232    -0.0000000000    -0.1718064324
   10      H       2.1400320233    -0.0000000000     0.3814604176
   11      C       0.0000000000    -0.0000000000     0.5111041560
   12      Cl      0.0000000000    -0.0000000000     2.2420356078
 ----------------------------------------------------------------
 Molecular Point Group                 C2v   NOp =  4
 Largest Abelian Subgroup              C2v   NOp =  4
 Nuclear Repulsion Energy =   316.4076139427 hartrees
 There are       29 alpha and       29 beta electrons

                       Distance Matrix (Angstroms)
             H (  1)   C (  2)   C (  3)   H (  4)   C (  5)   H (  6)
   C (  2)  1.080389
   C (  3)  2.158524  1.391908
   H (  4)  2.480698  2.140787  1.081351
   C (  5)  3.401657  2.416791  1.392453  2.149941
   H (  6)  4.295975  3.395439  2.148999  2.478677  1.080854
   C (  7)  3.868869  2.788569  2.408591  3.390576  1.392453  2.148999
   H (  8)  4.950189  3.869912  3.390576  4.287438  2.149941  2.478677
   C (  9)  3.397442  2.424117  2.788569  3.869912  2.416791  3.395439
   H ( 10)  4.280064  3.397442  3.868869  4.950189  3.401657  4.295975
   C ( 11)  2.143955  1.391205  2.398981  3.377780  2.773795  3.854649
   Cl( 12)  2.835750  2.701059  3.991729  4.841710  4.504726  5.585580
             C (  7)   H (  8)   C (  9)   H ( 10)   C ( 11)
   H (  8)  1.081351
   C (  9)  1.391908  2.140787
   H ( 10)  2.158524  2.480698  1.080389
   C ( 11)  2.398981  3.377780  1.391205  2.143955
   Cl( 12)  3.991729  4.841710  2.701059  2.835750  1.730931

 A cutoff of  1.0D-14 yielded   5292 shell pairs
 There are     31225 function pairs (     33033 Cartesian)

 -------------------------------------------------------
 OpenMP Integral Computing Module                       
 Release: version 1.0, May 2013, Q-Chem Inc. Pittsburgh 
 -------------------------------------------------------
 Integral Job Info:
 Integral job number is                      11
 Integral operator is                         1
 short-range coefficients                     0
 long-range coefficients              100000000
 Omega coefficients                           0
 if combine SR and LR in K                    0
 Integral screening is                        0
 Integral computing path is                   2
 max size of driver memory is            800000
 size of driver memory is                593474
 size of scratch memory is              8114252
 max col of scratch BK array               1296
 max len of scratch array in speh3          155
 max len of scratch index in speh4           18
 max int batch size is                      520
 min int batch size is                       52
 fixed nKL is                                52
 max L of basis functions is                  2
 order of int derivative is                   0
 number of shells is                        111
 number of basis is                         262
 number of cartesian basis is               262
 number of contracted shell pairs          5292
 number of primitive shell pairs           7807
 maxK2 (contraction) of shell pair           36
 max number of K2 of shell pair               1
 max number of CS2 of shell pair           1511
 max number of PS2 of shell pair           1511
 mem total for path MDJ                  543004
 -------------------------------------------------------
 Smallest overlap matrix eigenvalue = 1.05E-08
 Linear dependence detected in AO basis
 Tighter screening thresholds may be required for diffuse basis sets
 Use S2THRESH > 14 and THRESH = 14 in case of SCF convergence issues
 Number of orthogonalized atomic orbitals = 248
 Maximum deviation from orthogonality = 3.277E-11

 Scale SEOQF with 1.000000e-01/1.000000e-01/1.000000e-01

 Standard Electronic Orientation quadrupole field applied
 Nucleus-field energy     =    -0.0000000161 hartrees
 Guess MOs from core Hamiltonian diagonalization

 -----------------------------------------------------------------------
  General SCF calculation program by
  Eric Jon Sundstrom, Paul Horn, Yuezhi Mao, Dmitri Zuev, Alec White,
  David Stuck, Shaama M.S., Shane Yost, Joonho Lee, David Small,
  Daniel Levine, Susi Lehtola, Hugh Burton, Evgeny Epifanovsky
 -----------------------------------------------------------------------
 Hartree-Fock
 A restricted SCF calculation will be
 performed using DIIS
 SCF converges when DIIS error is below 1.0e-08
 ---------------------------------------
  Cycle       Energy         DIIS error
 ---------------------------------------
    1    -581.7445104550      1.42e-01  
    2    -440.3034823703      1.06e-01  
    3    -555.5627249095      9.56e-02  
    4    -658.0889888964      5.38e-02  
    5    -636.2863522532      7.69e-02  
    6    -687.2658852227      1.93e-02  
    7    -689.1767753253      6.87e-03  
    8    -689.6377416865      1.97e-03  
    9    -689.6740335989      5.51e-04  
   10    -689.6786122584      2.42e-04  
   11    -689.6803167928      1.20e-04  
   12    -689.6807896574      6.47e-05  
   13    -689.6809133925      2.22e-05  
   14    -689.6809378887      5.42e-06  
   15    -689.6809387689      2.23e-06  
   16    -689.6809388714      5.62e-07  
   17    -689.6809388768      8.83e-08  
   18    -689.6809388769      2.43e-08  
   19    -689.6809388769      4.85e-09  Convergence criterion met
 ---------------------------------------
 SCF time:   CPU 433.41s  wall 45.00s 
 SCF   energy in the final basis set =     -689.6809388769
 Total energy in the final basis set =     -689.6809388769


 ------------------------------------------------------------------------------

   CCMAN2: suite of methods based on coupled cluster
           and equation of motion theories.

   Components:
   * libvmm-1.3-trunk
     by Evgeny Epifanovsky, Ilya Kaliman.
   * libtensor-2.5-trunk
     by Evgeny Epifanovsky, Michael Wormit, Dmitry Zuev, Sam Manzer, 
        Ilya Kaliman.
   * libcc-2.5-trunk
     by Evgeny Epifanovsky, Arik Landau, Tomasz Kus, Kirill Khistyaev, 
        Dmitry Zuev, Prashant Manohar, Xintian Feng, Anna Krylov, 
        Matthew Goldey, Alec White, Thomas Jagau, Kaushik Nanda, 
        Anastasia Gunina, Alexander Kunitsa, Joonho Lee.

   CCMAN original authors:
   Anna I. Krylov, C. David Sherrill, Steven R. Gwaltney,
   Edward F. C. Byrd (2000)
   Sergey V. Levchenko, Lyudmila V. Slipchenko, Tao Wang,
   Ana-Maria C. Cristian (2003)
   Piotr A. Pieniazek, C. Melania Oana, Evgeny Epifanovsky (2007)
   Prashant Manohar (2009)

 ------------------------------------------------------------------------------


 Allocating and initializing 100000MB of RAM...
 Calculation will run on 10 cores.


 Alpha MOs, Restricted
 -- Occupied --                  
-104.84  -11.31  -11.25  -11.25  -11.25  -11.25  -11.25  -10.57
  1 A1    2 A1    3 A1    1 B1    4 A1    2 B1    5 A1    6 A1                 
 -8.034  -8.031  -8.031  -1.196  -1.124  -1.036  -1.000  -0.850
  7 A1    3 B1    1 B2    8 A1    9 A1    4 B1   10 A1    5 B1                 
 -0.823  -0.715  -0.651  -0.651  -0.607  -0.593  -0.547  -0.520
 11 A1   12 A1    6 B1   13 A1    7 B1   14 A1    2 B2    8 B1                 
 -0.515  -0.471  -0.456  -0.354  -0.338
 15 A1    3 B2    9 B1    1 A2    4 B2                                         
 -- Virtual --                   
  0.014   0.020   0.021   0.032   0.032   0.033   0.043   0.044
 16 A1   10 B1   17 A1    5 B2   18 A1   11 B1    2 A2    6 B2                 
  0.045   0.048   0.054   0.055   0.056   0.063   0.063   0.065
 19 A1   20 A1   12 B1    3 A2    7 B2   21 A1    8 B2   13 B1                 
  0.068   0.069   0.070   0.073   0.074   0.078   0.091   0.096
 22 A1    9 B2   14 B1   23 A1   15 B1   24 A1   25 A1   16 B1                 
  0.100   0.102   0.104   0.106   0.126   0.163   0.169   0.172
 26 A1    4 A2   10 B2   17 B1   27 A1   11 B2   28 A1   18 B1                 
  0.176   0.180   0.181   0.192   0.211   0.213   0.214   0.222
 29 A1    5 A2   12 B2   30 A1   19 B1   31 A1   13 B2   32 A1                 
  0.222   0.229   0.232   0.235   0.238   0.243   0.244   0.247
 20 B1   14 B2    6 A2   21 B1   33 A1   15 B2   34 A1   22 B1                 
  0.252   0.264   0.280   0.291   0.295   0.303   0.314   0.330
 23 B1   35 A1   36 A1   24 B1   25 B1   37 A1   38 A1   26 B1                 
  0.357   0.366   0.378   0.414   0.418   0.432   0.441   0.491
 16 B2   39 A1   40 A1   41 A1   27 B1   42 A1   28 B1   43 A1                 
  0.500   0.509   0.509   0.620   0.631   0.643   0.652   0.662
 29 B1   44 A1   30 B1   45 A1   31 B1   32 B1   17 B2   46 A1                 
  0.720   0.730   0.742   0.743   0.745   0.772   0.782   0.794
 47 A1   33 B1   48 A1   18 B2   34 B1    7 A2   19 B2   35 B1                 
  0.821   0.822   0.823   0.881   0.884   0.898   0.934   0.936
 49 A1    8 A2   20 B2   50 A1   21 B2   51 A1   52 A1   36 B1                 
  0.955   0.973   1.018   1.024   1.039   1.060   1.067   1.082
 37 B1   53 A1   38 B1   54 A1   55 A1   39 B1   22 B2   56 A1                 
  1.095   1.100   1.133   1.139   1.173   1.192   1.221   1.225
 57 A1   40 B1   41 B1    9 A2   58 A1   42 B1   59 A1   23 B2                 
  1.235   1.273   1.309   1.352   1.376   1.443   1.467   1.475
 10 A2   60 A1   11 A2   24 B2   12 A2   61 A1   43 B1   62 A1                 
  1.581   1.663   1.728   1.776   1.787   1.824   1.831   1.844
 25 B2   63 A1   44 B1   64 A1   45 B1   26 B2   13 A2   65 A1                 
  1.892   1.908   1.909   1.963   1.999   2.008   2.042   2.103
 27 B2   66 A1   46 B1   67 A1   47 B1   28 B2   14 A2   48 B1                 
  2.168   2.218   2.220   2.221   2.236   2.243   2.287   2.323
 68 A1   49 B1   15 A2   29 B2   50 B1   69 A1   30 B2   70 A1                 
  2.352   2.368   2.392   2.579   2.611   2.647   2.684   2.748
 51 B1   16 A2   71 A1   31 B2   52 B1   17 A2   32 B2   72 A1                 
  2.777   2.798   2.810   2.867   2.914   2.935   2.981   2.997
 53 B1   73 A1   54 B1   55 B1   74 A1   75 A1   76 A1   77 A1                 
  3.009   3.026   3.038   3.043   3.066   3.191   3.194   3.205
 56 B1   78 A1   79 A1   57 B1   33 B2   34 B2   18 A2   58 B1                 
  3.210   3.283   3.288   3.321   3.473   3.567   3.631   3.757
 80 A1   35 B2   19 A2   59 B1   36 B2   60 B1   81 A1   61 B1                 
  3.782   3.902   3.919   4.022   4.189   4.384   4.442   4.510
 82 A1   62 B1   83 A1   84 A1   85 A1   63 B1   86 A1   87 A1                 
  4.516   5.123   5.263   5.442   5.447   5.754   5.779   6.187
 64 B1   88 A1   65 B1   89 A1   66 B1   90 A1   67 B1   91 A1                 
 10.544  20.635  20.695  20.708  20.824  20.852  21.124  26.795
 92 A1   93 A1   94 A1   68 B1   95 A1   69 B1   96 A1   37 B2                 
 27.056  27.522  80.200  80.266  80.282  80.380  80.405  80.613
 70 B1   97 A1   98 A1   99 A1   71 B1  100 A1   72 B1  101 A1                 
219.412 322.039 322.101 322.118 322.201 322.223 322.3901431.607
102 A1  103 A1  104 A1   73 B1  105 A1   74 B1  106 A1  107 A1                 
*******1431.6801431.7491431.7681431.9088749.8448749.8938749.909
108 A1   75 B1  109 A1   76 B1  110 A1  111 A1  112 A1   77 B1                 
*******8749.9818750.093
113 A1   78 B1  114 A1                                                         

 Beta MOs, Restricted
 -- Occupied --                  
-104.84  -11.31  -11.25  -11.25  -11.25  -11.25  -11.25  -10.57
  1 A1    2 A1    3 A1    1 B1    4 A1    2 B1    5 A1    6 A1                 
 -8.034  -8.031  -8.031  -1.196  -1.124  -1.036  -1.000  -0.850
  7 A1    3 B1    1 B2    8 A1    9 A1    4 B1   10 A1    5 B1                 
 -0.823  -0.715  -0.651  -0.651  -0.607  -0.593  -0.547  -0.520
 11 A1   12 A1    6 B1   13 A1    7 B1   14 A1    2 B2    8 B1                 
 -0.515  -0.471  -0.456  -0.354  -0.338
 15 A1    3 B2    9 B1    1 A2    4 B2                                         
 -- Virtual --                   
  0.014   0.020   0.021   0.032   0.032   0.033   0.043   0.044
 16 A1   10 B1   17 A1    5 B2   18 A1   11 B1    2 A2    6 B2                 
  0.045   0.048   0.054   0.055   0.056   0.063   0.063   0.065
 19 A1   20 A1   12 B1    3 A2    7 B2   21 A1    8 B2   13 B1                 
  0.068   0.069   0.070   0.073   0.074   0.078   0.091   0.096
 22 A1    9 B2   14 B1   23 A1   15 B1   24 A1   25 A1   16 B1                 
  0.100   0.102   0.104   0.106   0.126   0.163   0.169   0.172
 26 A1    4 A2   10 B2   17 B1   27 A1   11 B2   28 A1   18 B1                 
  0.176   0.180   0.181   0.192   0.211   0.213   0.214   0.222
 29 A1    5 A2   12 B2   30 A1   19 B1   31 A1   13 B2   32 A1                 
  0.222   0.229   0.232   0.235   0.238   0.243   0.244   0.247
 20 B1   14 B2    6 A2   21 B1   33 A1   15 B2   34 A1   22 B1                 
  0.252   0.264   0.280   0.291   0.295   0.303   0.314   0.330
 23 B1   35 A1   36 A1   24 B1   25 B1   37 A1   38 A1   26 B1                 
  0.357   0.366   0.378   0.414   0.418   0.432   0.441   0.491
 16 B2   39 A1   40 A1   41 A1   27 B1   42 A1   28 B1   43 A1                 
  0.500   0.509   0.509   0.620   0.631   0.643   0.652   0.662
 29 B1   44 A1   30 B1   45 A1   31 B1   32 B1   17 B2   46 A1                 
  0.720   0.730   0.742   0.743   0.745   0.772   0.782   0.794
 47 A1   33 B1   48 A1   18 B2   34 B1    7 A2   19 B2   35 B1                 
  0.821   0.822   0.823   0.881   0.884   0.898   0.934   0.936
 49 A1    8 A2   20 B2   50 A1   21 B2   51 A1   52 A1   36 B1                 
  0.955   0.973   1.018   1.024   1.039   1.060   1.067   1.082
 37 B1   53 A1   38 B1   54 A1   55 A1   39 B1   22 B2   56 A1                 
  1.095   1.100   1.133   1.139   1.173   1.192   1.221   1.225
 57 A1   40 B1   41 B1    9 A2   58 A1   42 B1   59 A1   23 B2                 
  1.235   1.273   1.309   1.352   1.376   1.443   1.467   1.475
 10 A2   60 A1   11 A2   24 B2   12 A2   61 A1   43 B1   62 A1                 
  1.581   1.663   1.728   1.776   1.787   1.824   1.831   1.844
 25 B2   63 A1   44 B1   64 A1   45 B1   26 B2   13 A2   65 A1                 
  1.892   1.908   1.909   1.963   1.999   2.008   2.042   2.103
 27 B2   66 A1   46 B1   67 A1   47 B1   28 B2   14 A2   48 B1                 
  2.168   2.218   2.220   2.221   2.236   2.243   2.287   2.323
 68 A1   49 B1   15 A2   29 B2   50 B1   69 A1   30 B2   70 A1                 
  2.352   2.368   2.392   2.579   2.611   2.647   2.684   2.748
 51 B1   16 A2   71 A1   31 B2   52 B1   17 A2   32 B2   72 A1                 
  2.777   2.798   2.810   2.867   2.914   2.935   2.981   2.997
 53 B1   73 A1   54 B1   55 B1   74 A1   75 A1   76 A1   77 A1                 
  3.009   3.026   3.038   3.043   3.066   3.191   3.194   3.205
 56 B1   78 A1   79 A1   57 B1   33 B2   34 B2   18 A2   58 B1                 
  3.210   3.283   3.288   3.321   3.473   3.567   3.631   3.757

 Occupation and symmetry of molecular orbitals

 Point group: C2v (4 irreducible representations).

                           A1   A2   B1   B2    All 
 ----------------------------------------------------
 All molecular orbitals:
  - Alpha                  114  19   78   37    248 
  - Beta                   114  19   78   37    248 
 ----------------------------------------------------
 Alpha orbitals:
  - Frozen occupied        7    0    3    1     11  
  - Active occupied        8    1    6    3     18  
  - Active virtual         99   18   69   33    219 
  - Frozen virtual         0    0    0    0     0   
 ----------------------------------------------------
 Beta orbitals:
  - Frozen occupied        7    0    3    1     11  
  - Active occupied        8    1    6    3     18  
  - Active virtual         99   18   69   33    219 
  - Frozen virtual         0    0    0    0     0   
 ----------------------------------------------------

 Import integrals:   CPU 0.00 s  wall 0.00 s

 Import integrals:   CPU 844.09 s  wall 632.12 s

 MP2 amplitudes:   CPU 6.96 s  wall 5.25 s

Running a double precision version
           CCSD T amplitudes will be solved using DIIS.

           Start     Size      MaxIter   EConv     TConv     
           3         7         100       1.00e-06  1.00e-04  
 ------------------------------------------------------------------------------
           Energy (a.u.)   Ediff      Tdiff       Comment
 ------------------------------------------------------------------------------
          -690.65241933                           
     1    -690.65491328   2.49e-03   9.86e-01     
     2    -690.68464535   2.97e-02   1.34e-01     
     3    -690.68508216   4.37e-04   4.67e-02     
     4    -690.68790367   2.82e-03   1.40e-02     Switched to DIIS steps.
     5    -690.68890352   1.00e-03   1.16e-02     
     6    -690.68892959   2.61e-05   2.14e-03     
     7    -690.68891588   1.37e-05   1.01e-03     
     8    -690.68891484   1.04e-06   1.97e-04     
     9    -690.68891494   1.04e-07   7.41e-05     
 ------------------------------------------------------------------------------
          -690.68891494                           CCSD T converged.

End of double precision
 SCF energy                 = -689.68093888
 MP2 energy                 = -690.65241933
 CCSD correlation energy     =   -1.00797607
 CCSD total energy           = -690.68891494

 CCSD  T1^2 = 0.0079  T2^2 = 0.3940  Leading amplitudes:

 Amplitude    Orbitals with energies
 -0.0210       1 (A2) A                  ->    7 (A2) A                   
              -0.3535                          0.7719                     
 -0.0210       1 (A2) B                  ->    7 (A2) B                   
              -0.3535                          0.7719                     
 -0.0202       4 (B2) A                  ->    19 (B2) A                  
              -0.3380                          0.7819                     
 -0.0202       4 (B2) B                  ->    19 (B2) B                  
              -0.3380                          0.7819                     

 Amplitude    Orbitals with energies
 -0.0691       1 (A2) A      1 (A2) B    ->    4 (A2) A      4 (A2) B     
              -0.3535       -0.3535            0.1018        0.1018       
  0.0691       1 (A2) A      1 (A2) B    ->    4 (A2) B      4 (A2) A     
              -0.3535       -0.3535            0.1018        0.1018       
  0.0691       1 (A2) B      1 (A2) A    ->    4 (A2) A      4 (A2) B     
              -0.3535       -0.3535            0.1018        0.1018       
 -0.0691       1 (A2) B      1 (A2) A    ->    4 (A2) B      4 (A2) A     
              -0.3535       -0.3535            0.1018        0.1018       

 Computing CCSD intemediates for later calculations in double precision
 Finished.

Running a double precision version
           CCSD Lambda amplitudes will be solved using DIIS.
           Start     Size      MaxIter   EConv     LConv     
           3         7         100       1.00e-06  1.00e-04  
 ------------------------------------------------------------------------------
            Enorm      Ldiff       Comment
 ------------------------------------------------------------------------------
     1     5.69e-02   4.60e-02     
     2     1.02e-02   9.83e-04     
     3     3.45e-03   1.86e-03     
     4     1.40e-03   3.03e-04     Switched to DIIS steps.
     5     4.16e-04   3.23e-04     
     6     1.85e-04   6.70e-05     
     7     5.23e-05   2.20e-05     
     8     2.04e-05   4.23e-06     
     9     6.90e-06   6.47e-07     
    10     2.86e-06   5.15e-08     
    11     1.11e-06   8.31e-08     
    12     4.03e-07   7.97e-08     
 ------------------------------------------------------------------------------
                                   CCSD Lambda converged.

 CCSD calculation:   CPU 2815.43 s  wall 385.90 s

        Solving for CVS-EOMEE-CCSD A1 singlet states.

       EOMEE-CCSD-SINGLES right amplitudes will be solved using Davidson.
        Amplitudes will be solved using standard  algorithm.
     Hard-coded thresholds: 
     LinDepThresh=1.00e-15  NormThresh=1.00e-06  ReorthogonThresh=1.00e-02

      Roots     MaxVec    MaxIter   Precond   Conv      Shift    
      20        1000      200       1         1.00e-04  0.00e+00  
 ------------------------------------------------------------------------------
      Iter ConvRoots NVecs ResNorm Current eigenvalues (eV)
 ------------------------------------------------------------------------------
      0    1      20    6.38e-04   215.7761   216.5663   216.6089   216.8692   217.2788   217.2816   217.3498   217.3917   217.6117   217.8394   217.8948   217.9103   217.9359   217.9410   218.1180   218.3319   218.5185*  218.5557   218.5968   218.6070   
Rerun orthogonalization...
      1    0      39    1.44e-01   215.6204   216.4105   216.5173   216.5964   217.1766   217.2321   217.2940   217.3086   217.5204   217.7999   217.8694   217.8818   217.8862   217.9079   218.0803   218.3023   218.5160   218.5274   218.5668   218.5813   
      2    0      59    2.80e-02   213.3776   214.8666   215.9477   216.1305   216.6991   216.9391   217.1085   217.1511   217.2235   217.2865   217.3615   217.6893   217.7678   217.8420   217.8656   217.9494   217.9655   218.0559   218.2473   218.3587   
      3    0      79    2.70e-03   212.5622   214.8350   215.9257   216.1051   216.5675   216.8804   216.9244   217.1144   217.1267   217.2506   217.3456   217.6671   217.7515   217.8370   217.8562   217.9117   217.9487   218.0363   218.1754   218.3261   
      4    15     99    5.83e-05   212.5550   214.8340*  215.9246*  216.1044*  216.5646*  216.8703   216.9225*  217.1134*  217.1252   217.2505*  217.3453*  217.6656*  217.7500   217.8368*  217.8556*  217.9110*  217.9480*  218.0346*  218.1717*  218.3236   
      5    20     104   6.81e-06   212.5550*  214.8339*  215.9246*  216.1044*  216.5645*  216.8702*  216.9225*  217.1134*  217.1251*  217.2505*  217.3453*  217.6656*  217.7500*  217.8367*  217.8556*  217.9110*  217.9480*  218.0346*  218.1717*  218.3235*  

     Davidson procedure converged

        CVS-EOMEE-CCSD/MP2 right amplitudes will be solved using Davidson.
        Amplitudes will be solved using standard  algorithm.
     Hard-coded thresholds: 
     LinDepThresh=1.00e-15  NormThresh=1.00e-06  ReorthogonThresh=1.00e-02

      Roots     MaxVec    MaxIter   Precond   Conv      Shift    
      20        1000      200       1         1.00e-04  0.00e+00  
 ------------------------------------------------------------------------------
      Iter ConvRoots NVecs ResNorm Current eigenvalues (eV)
 ------------------------------------------------------------------------------
      0    0      20    1.79e+00   212.5550   214.8339   215.9246   216.1044   216.5645   216.8702   216.9225   217.1134   217.1251   217.2505   217.3453   217.6656   217.7500   217.8367   217.8556   217.9110   217.9480   218.0346   218.1717   218.3235   
      1    0      40    1.02e+01   210.6760   212.7650   213.6413   213.7554   214.1728   214.3612   214.6581   214.7650   214.8500   214.8768   215.0310   215.3293   215.3977   215.4744   215.5354   215.5486   215.6376   215.6936   215.8921   216.0081   
      2    0      60    6.10e-02   203.5477   204.8389   205.0037   205.5664   205.7095   206.0420   206.3387   206.3718   206.4801   206.5161   206.7153   206.9812   207.0825   207.0896   207.1305   207.1693   207.2432   207.4219   207.7581   207.9093   
      3    0      80    6.43e-03   203.1958   204.5625   204.6353   205.3019   205.4348   205.7571   206.0474   206.0859   206.1975   206.2279   206.4141   206.6905   206.7997   206.8047   206.8382   206.8862   206.9530   207.1363   207.4556   207.6162   
Found complex roots...
      4    0      100   7.86e-04   203.1439   204.5249   204.5772   205.2825   205.4141   205.7378   206.0240   206.0717   206.1850   206.2117   206.3885   206.6754   206.7831   206.7941   206.8216   206.8752   206.9374   207.1153   207.4245   207.5801   
      5    0      120   1.06e-03   203.1380   204.5060   204.5547   205.2729   205.4059   205.7294   206.0111   206.0641   206.1798   206.2046   206.3751   206.6676   206.7738   206.7911   206.8145   206.8715   206.9309   207.1003   207.4015   207.5573   
      6    2      140   3.60e-04   203.1373   204.4999   204.5488   205.2685   205.4026   205.7239   206.0031   206.0585   206.1765   206.1995   206.3647   206.6610   206.7659   206.7894*  206.8079   206.8695*  206.9260   207.0863   207.3789   207.5375   
      7    3      158   4.83e-04   203.1363*  204.4979   204.5469   205.2667   205.4013*  205.7225   206.0000   206.0575   206.1760   206.1977   206.3598   206.6590   206.7622   206.7892*  206.8048   206.8689   206.9242   207.0784   207.3620   207.5190   
      8    14     175   1.82e-04   203.1361*  204.4968*  204.5458*  205.2660*  205.4010*  205.7213*  205.9978*  206.0558*  206.1750*  206.1959*  206.3561*  206.6560   206.7584   206.7888*  206.8018   206.8682*  206.9222*  207.0703   207.3455   207.4967   
      9    14     181   2.81e-04   203.1360*  204.4967*  204.5458*  205.2659*  205.4010*  205.7212*  205.9972*  206.0555*  206.1750*  206.1958*  206.3556   206.6542*  206.7560   206.7887*  206.7998   206.8681*  206.9216*  207.0666   207.3316   207.4744   
      10   18     187   2.94e-04   203.1360*  204.4967*  204.5458*  205.2658*  205.4010*  205.7212*  205.9968*  206.0554*  206.1750*  206.1956*  206.3544*  206.6538*  206.7552*  206.7887*  206.7992*  206.8680*  206.9213*  207.0652*  207.3164   207.4353   
      11   18     189   3.34e-04   203.1360*  204.4967*  204.5458*  205.2658*  205.4010*  205.7212*  205.9967*  206.0553*  206.1750*  206.1956*  206.3544*  206.6538*  206.7550*  206.7886*  206.7991*  206.8679*  206.9212*  207.0651*  207.3047   207.3798   
      12   18     191   9.45e-05   203.1360*  204.4967*  204.5458*  205.2658*  205.4010*  205.7211*  205.9966*  206.0552*  206.1750*  206.1956*  206.3543*  206.6538*  206.7548*  206.7886*  206.7990*  206.8679*  206.9211*  207.0651*  207.2958   207.3523   
      13   18     193   6.35e-05   203.1360*  204.4967*  204.5458*  205.2658*  205.4010*  205.7211*  205.9966*  206.0552*  206.1750*  206.1956*  206.3543*  206.6538*  206.7547*  206.7886*  206.7989*  206.8679*  206.9211*  207.0650*  207.2930   207.3457   
      14   18     195   5.08e-05   203.1360*  204.4966*  204.5457*  205.2658*  205.4010*  205.7211*  205.9966*  206.0552*  206.1749*  206.1954*  206.3543*  206.6537*  206.7546*  206.7886*  206.7989*  206.8679*  206.9210*  207.0650*  207.2910   207.3421   
      15   18     197   5.50e-05   203.1360*  204.4966*  204.5457*  205.2658*  205.4010*  205.7211*  205.9966*  206.0552*  206.1749*  206.1953*  206.3543*  206.6534*  206.7545*  206.7886*  206.7989*  206.8679*  206.9210*  207.0649*  207.2890   207.3392   
      16   18     199   3.94e-05   203.1360*  204.4966*  204.5457*  205.2658*  205.4010*  205.7211*  205.9966*  206.0552*  206.1749*  206.1952*  206.3542*  206.6533*  206.7546*  206.7886*  206.7989*  206.8679*  206.9209*  207.0648*  207.2870   207.3368   
      17   18     201   3.79e-05   203.1360*  204.4966*  204.5457*  205.2658*  205.4009*  205.7211*  205.9966*  206.0552*  206.1748*  206.1951*  206.3542*  206.6532*  206.7545*  206.7886*  206.7989*  206.8679*  206.9209*  207.0648*  207.2853   207.3354   
      18   20     203   3.40e-05   203.1360*  204.4966*  204.5457*  205.2658*  205.4010*  205.7211*  205.9966*  206.0552*  206.1748*  206.1950*  206.3542*  206.6531*  206.7544*  206.7886*  206.7988*  206.8679*  206.9209*  207.0648*  207.2845*  207.3345*  

     Davidson procedure converged

 EOMEE transition 1/A1
 Total energy = -683.22380393 a.u.  Excitation energy = 203.1360 eV.
 R0^2 = 0.0000  R1^2 = 0.8812  R2_CCVV^2 = 0.0038  R2_COVV^2 = 0.0575  Res^2 = 9.67e-06
 Conv-d = yes

 Amplitude    Transitions between orbitals
 -0.2888       7 (A1) A                  ->    29 (A1) A                  
 -0.2888       7 (A1) B                  ->    29 (A1) B                  
  0.2857       7 (A1) A                  ->    28 (A1) A                  
  0.2857       7 (A1) B                  ->    28 (A1) B                  
  0.2388       7 (A1) A                  ->    32 (A1) A                  
  0.2388       7 (A1) B                  ->    32 (A1) B                  
 -0.2272       7 (A1) A                  ->    37 (A1) A                  
 -0.2272       7 (A1) B                  ->    37 (A1) B                  
 -0.1811       7 (A1) A                  ->    35 (A1) A                  
 -0.1811       7 (A1) B                  ->    35 (A1) B                  
  0.1529       7 (A1) A                  ->    25 (A1) A                  
  0.1529       7 (A1) B                  ->    25 (A1) B                  
 -0.1300       7 (A1) A                  ->    27 (A1) A                  
 -0.1300       7 (A1) B                  ->    27 (A1) B                  
 -0.1107       7 (A1) A                  ->    38 (A1) A                  
 -0.1107       7 (A1) B                  ->    38 (A1) B                  
  0.1061       7 (A1) A                  ->    36 (A1) A                  
  0.1061       7 (A1) B                  ->    36 (A1) B                  

              Summary of significant orbitals:

               Number  Type             Irrep      Energy
               9       Occ  Alpha       7 (A1)     -8.0343
               9       Occ  Beta        7 (A1)     -8.0343
               52      Vir  Alpha      25 (A1)      0.0912
               58      Vir  Alpha      27 (A1)      0.1260
               60      Vir  Alpha      28 (A1)      0.1690
               62      Vir  Alpha      29 (A1)      0.1761
               69      Vir  Alpha      32 (A1)      0.2216
               79      Vir  Alpha      35 (A1)      0.2644
               80      Vir  Alpha      36 (A1)      0.2796
               83      Vir  Alpha      37 (A1)      0.3026
               84      Vir  Alpha      38 (A1)      0.3136
               52      Vir  Beta       25 (A1)      0.0912
               58      Vir  Beta       27 (A1)      0.1260
               60      Vir  Beta       28 (A1)      0.1690
               62      Vir  Beta       29 (A1)      0.1761
               69      Vir  Beta       32 (A1)      0.2216
               79      Vir  Beta       35 (A1)      0.2644
               80      Vir  Beta       36 (A1)      0.2796
               83      Vir  Beta       37 (A1)      0.3026
               84      Vir  Beta       38 (A1)      0.3136


 EOMEE transition 2/A1
 Total energy = -683.17380305 a.u.  Excitation energy = 204.4966 eV.
 R0^2 = 0.0000  R1^2 = 0.8602  R2_CCVV^2 = 0.0036  R2_COVV^2 = 0.0681  Res^2 = 1.34e-05
 Conv-d = yes

 Amplitude    Transitions between orbitals
 -0.4074       1 (B2) A                  ->    10 (B2) A                  
 -0.4074       1 (B2) B                  ->    10 (B2) B                  
 -0.2705       7 (A1) A                  ->    23 (A1) A                  
 -0.2705       7 (A1) B                  ->    23 (A1) B                  
 -0.2378       7 (A1) A                  ->    17 (A1) A                  
 -0.2378       7 (A1) B                  ->    17 (A1) B                  
  0.1784       7 (A1) A                  ->    16 (A1) A                  
  0.1784       7 (A1) B                  ->    16 (A1) B                  
 -0.1126       7 (A1) A                  ->    30 (A1) A                  
 -0.1126       7 (A1) B                  ->    30 (A1) B                  
 -0.1079       1 (B2) A                  ->    6 (B2) A                   
 -0.1079       1 (B2) B                  ->    6 (B2) B                   
  0.1021       7 (A1) A                  ->    22 (A1) A                  
  0.1021       7 (A1) B                  ->    22 (A1) B                  

              Summary of significant orbitals:

               Number  Type             Irrep      Energy
               9       Occ  Alpha       7 (A1)     -8.0343
               11      Occ  Alpha       1 (B2)     -8.0311
               9       Occ  Beta        7 (A1)     -8.0343
               11      Occ  Beta        1 (B2)     -8.0311
               30      Vir  Alpha      16 (A1)      0.0143
               32      Vir  Alpha      17 (A1)      0.0212
               46      Vir  Alpha      22 (A1)      0.0682
               49      Vir  Alpha      23 (A1)      0.0734
               65      Vir  Alpha      30 (A1)      0.1918
               37      Vir  Alpha       6 (B2)      0.0436
               56      Vir  Alpha      10 (B2)      0.1035
               30      Vir  Beta       16 (A1)      0.0143
               32      Vir  Beta       17 (A1)      0.0212
               46      Vir  Beta       22 (A1)      0.0682
               49      Vir  Beta       23 (A1)      0.0734
               65      Vir  Beta       30 (A1)      0.1918
               37      Vir  Beta        6 (B2)      0.0436
               56      Vir  Beta       10 (B2)      0.1035


 EOMEE transition 3/A1
 Total energy = -683.17199812 a.u.  Excitation energy = 204.5457 eV.
 R0^2 = 0.0000  R1^2 = 0.8579  R2_CCVV^2 = 0.0037  R2_COVV^2 = 0.0692  Res^2 = 1.45e-05
 Conv-d = yes

 Amplitude    Transitions between orbitals
  0.4466       1 (B2) A                  ->    10 (B2) A                  
  0.4466       1 (B2) B                  ->    10 (B2) B                  
 -0.2344       7 (A1) A                  ->    23 (A1) A                  
 -0.2344       7 (A1) B                  ->    23 (A1) B                  
 -0.2033       7 (A1) A                  ->    17 (A1) A                  
 -0.2033       7 (A1) B                  ->    17 (A1) B                  
  0.1636       7 (A1) A                  ->    16 (A1) A                  
  0.1636       7 (A1) B                  ->    16 (A1) B                  
  0.1391       1 (B2) A                  ->    6 (B2) A                   
  0.1391       1 (B2) B                  ->    6 (B2) B                   
 -0.1050       1 (B2) A                  ->    5 (B2) A                   
 -0.1050       1 (B2) B                  ->    5 (B2) B                   
 -0.1026       7 (A1) A                  ->    30 (A1) A                  
 -0.1026       7 (A1) B                  ->    30 (A1) B                  

              Summary of significant orbitals:

               Number  Type             Irrep      Energy
               9       Occ  Alpha       7 (A1)     -8.0343
               11      Occ  Alpha       1 (B2)     -8.0311
               9       Occ  Beta        7 (A1)     -8.0343
               11      Occ  Beta        1 (B2)     -8.0311
               30      Vir  Alpha      16 (A1)      0.0143
               32      Vir  Alpha      17 (A1)      0.0212
               49      Vir  Alpha      23 (A1)      0.0734
               65      Vir  Alpha      30 (A1)      0.1918
               33      Vir  Alpha       5 (B2)      0.0317
               37      Vir  Alpha       6 (B2)      0.0436
               56      Vir  Alpha      10 (B2)      0.1035
               30      Vir  Beta       16 (A1)      0.0143
               32      Vir  Beta       17 (A1)      0.0212
               49      Vir  Beta       23 (A1)      0.0734
               65      Vir  Beta       30 (A1)      0.1918
               33      Vir  Beta        5 (B2)      0.0317
               37      Vir  Beta        6 (B2)      0.0436
               56      Vir  Beta       10 (B2)      0.1035


 EOMEE transition 4/A1
 Total energy = -683.14553675 a.u.  Excitation energy = 205.2658 eV.
 R0^2 = 0.0000  R1^2 = 0.8644  R2_CCVV^2 = 0.0037  R2_COVV^2 = 0.0660  Res^2 = 2.62e-06
 Conv-d = yes

 Amplitude    Transitions between orbitals
  0.3586       3 (B1) A                  ->    10 (B1) A                  
  0.3586       3 (B1) B                  ->    10 (B1) B                  
 -0.3258       3 (B1) A                  ->    11 (B1) A                  
 -0.3258       3 (B1) B                  ->    11 (B1) B                  
  0.1857       3 (B1) A                  ->    14 (B1) A                  
  0.1857       3 (B1) B                  ->    14 (B1) B                  
  0.1763       3 (B1) A                  ->    17 (B1) A                  
  0.1763       3 (B1) B                  ->    17 (B1) B                  
  0.1528       3 (B1) A                  ->    12 (B1) A                  
  0.1528       3 (B1) B                  ->    12 (B1) B                  
 -0.1507       3 (B1) A                  ->    16 (B1) A                  
 -0.1507       3 (B1) B                  ->    16 (B1) B                  
  0.1225       1 (B2) A                  ->    5 (B2) A                   
  0.1225       1 (B2) B                  ->    5 (B2) B                   
  0.1144       3 (B1) A                  ->    13 (B1) A                  
  0.1144       3 (B1) B                  ->    13 (B1) B                  
  0.1127       3 (B1) A                  ->    18 (B1) A                  
  0.1127       3 (B1) B                  ->    18 (B1) B                  
 -0.1045       1 (B2) A                  ->    6 (B2) A                   
 -0.1045       1 (B2) B                  ->    6 (B2) B                   

              Summary of significant orbitals:

               Number  Type             Irrep      Energy
               10      Occ  Alpha       3 (B1)     -8.0312
               11      Occ  Alpha       1 (B2)     -8.0311
               10      Occ  Beta        3 (B1)     -8.0312
               11      Occ  Beta        1 (B2)     -8.0311
               31      Vir  Alpha      10 (B1)      0.0202
               35      Vir  Alpha      11 (B1)      0.0334
               40      Vir  Alpha      12 (B1)      0.0538
               45      Vir  Alpha      13 (B1)      0.0647
               48      Vir  Alpha      14 (B1)      0.0702
               53      Vir  Alpha      16 (B1)      0.0957
               57      Vir  Alpha      17 (B1)      0.1061
               61      Vir  Alpha      18 (B1)      0.1724
               33      Vir  Alpha       5 (B2)      0.0317
               37      Vir  Alpha       6 (B2)      0.0436
               31      Vir  Beta       10 (B1)      0.0202
               35      Vir  Beta       11 (B1)      0.0334
               40      Vir  Beta       12 (B1)      0.0538
               45      Vir  Beta       13 (B1)      0.0647
               48      Vir  Beta       14 (B1)      0.0702
               53      Vir  Beta       16 (B1)      0.0957
               57      Vir  Beta       17 (B1)      0.1061
               61      Vir  Beta       18 (B1)      0.1724
               33      Vir  Beta        5 (B2)      0.0317
               37      Vir  Beta        6 (B2)      0.0436


 EOMEE transition 5/A1
 Total energy = -683.14056840 a.u.  Excitation energy = 205.4010 eV.
 R0^2 = 0.0000  R1^2 = 0.8637  R2_CCVV^2 = 0.0037  R2_COVV^2 = 0.0663  Res^2 = 8.86e-06
 Conv-d = yes

 Amplitude    Transitions between orbitals
 -0.4008       1 (B2) A                  ->    5 (B2) A                   
 -0.4008       1 (B2) B                  ->    5 (B2) B                   
  0.3102       1 (B2) A                  ->    6 (B2) A                   
  0.3102       1 (B2) B                  ->    6 (B2) B                   
  0.1966       1 (B2) A                  ->    7 (B2) A                   
  0.1966       1 (B2) B                  ->    7 (B2) B                   
  0.1762       1 (B2) A                  ->    11 (B2) A                  
  0.1762       1 (B2) B                  ->    11 (B2) B                  
 -0.1507       1 (B2) A                  ->    12 (B2) A                  
 -0.1507       1 (B2) B                  ->    12 (B2) B                  
 -0.1484       1 (B2) A                  ->    10 (B2) A                  
 -0.1484       1 (B2) B                  ->    10 (B2) B                  
  0.1187       3 (B1) A                  ->    10 (B1) A                  
  0.1187       3 (B1) B                  ->    10 (B1) B                  

              Summary of significant orbitals:

               Number  Type             Irrep      Energy
               10      Occ  Alpha       3 (B1)     -8.0312
               11      Occ  Alpha       1 (B2)     -8.0311
               10      Occ  Beta        3 (B1)     -8.0312
               11      Occ  Beta        1 (B2)     -8.0311
               31      Vir  Alpha      10 (B1)      0.0202
               33      Vir  Alpha       5 (B2)      0.0317
               37      Vir  Alpha       6 (B2)      0.0436
               42      Vir  Alpha       7 (B2)      0.0559
               56      Vir  Alpha      10 (B2)      0.1035
               59      Vir  Alpha      11 (B2)      0.1629
               64      Vir  Alpha      12 (B2)      0.1813
               31      Vir  Beta       10 (B1)      0.0202
               33      Vir  Beta        5 (B2)      0.0317
               37      Vir  Beta        6 (B2)      0.0436
               42      Vir  Beta        7 (B2)      0.0559
               56      Vir  Beta       10 (B2)      0.1035
               59      Vir  Beta       11 (B2)      0.1629
               64      Vir  Beta       12 (B2)      0.1813


 EOMEE transition 6/A1
 Total energy = -683.12880459 a.u.  Excitation energy = 205.7211 eV.
 R0^2 = 0.0000  R1^2 = 0.8602  R2_CCVV^2 = 0.0036  R2_COVV^2 = 0.0681  Res^2 = 1.36e-05
 Conv-d = yes

 Amplitude    Transitions between orbitals
 -0.3516       7 (A1) A                  ->    19 (A1) A                  
 -0.3516       7 (A1) B                  ->    19 (A1) B                  
  0.3275       7 (A1) A                  ->    16 (A1) A                  
  0.3275       7 (A1) B                  ->    16 (A1) B                  
  0.2198       7 (A1) A                  ->    18 (A1) A                  
  0.2198       7 (A1) B                  ->    18 (A1) B                  
  0.1902       7 (A1) A                  ->    17 (A1) A                  
  0.1902       7 (A1) B                  ->    17 (A1) B                  
 -0.1622       7 (A1) A                  ->    25 (A1) A                  
 -0.1622       7 (A1) B                  ->    25 (A1) B                  
 -0.1461       7 (A1) A                  ->    20 (A1) A                  
 -0.1461       7 (A1) B                  ->    20 (A1) B                  
 -0.1124       7 (A1) A                  ->    29 (A1) A                  
 -0.1124       7 (A1) B                  ->    29 (A1) B                  

              Summary of significant orbitals:

               Number  Type             Irrep      Energy
               9       Occ  Alpha       7 (A1)     -8.0343
               9       Occ  Beta        7 (A1)     -8.0343
               30      Vir  Alpha      16 (A1)      0.0143
               32      Vir  Alpha      17 (A1)      0.0212
               34      Vir  Alpha      18 (A1)      0.0319
               38      Vir  Alpha      19 (A1)      0.0450
               39      Vir  Alpha      20 (A1)      0.0478
               52      Vir  Alpha      25 (A1)      0.0912
               62      Vir  Alpha      29 (A1)      0.1761
               30      Vir  Beta       16 (A1)      0.0143
               32      Vir  Beta       17 (A1)      0.0212
               34      Vir  Beta       18 (A1)      0.0319
               38      Vir  Beta       19 (A1)      0.0450
               39      Vir  Beta       20 (A1)      0.0478
               52      Vir  Beta       25 (A1)      0.0912
               62      Vir  Beta       29 (A1)      0.1761


 EOMEE transition 7/A1
 Total energy = -683.11867987 a.u.  Excitation energy = 205.9966 eV.
 R0^2 = 0.0000  R1^2 = 0.8608  R2_CCVV^2 = 0.0036  R2_COVV^2 = 0.0678  Res^2 = 9.83e-06
 Conv-d = yes

 Amplitude    Transitions between orbitals
 -0.3765       7 (A1) A                  ->    16 (A1) A                  
 -0.3765       7 (A1) B                  ->    16 (A1) B                  
 -0.3435       7 (A1) A                  ->    19 (A1) A                  
 -0.3435       7 (A1) B                  ->    19 (A1) B                  
 -0.2452       7 (A1) A                  ->    23 (A1) A                  
 -0.2452       7 (A1) B                  ->    23 (A1) B                  
 -0.1654       7 (A1) A                  ->    28 (A1) A                  
 -0.1654       7 (A1) B                  ->    28 (A1) B                  
 -0.1461       7 (A1) A                  ->    21 (A1) A                  
 -0.1461       7 (A1) B                  ->    21 (A1) B                  
 -0.1255       7 (A1) A                  ->    29 (A1) A                  
 -0.1255       7 (A1) B                  ->    29 (A1) B                  
 -0.1164       7 (A1) A                  ->    18 (A1) A                  
 -0.1164       7 (A1) B                  ->    18 (A1) B                  

              Summary of significant orbitals:

               Number  Type             Irrep      Energy
               9       Occ  Alpha       7 (A1)     -8.0343
               9       Occ  Beta        7 (A1)     -8.0343
               30      Vir  Alpha      16 (A1)      0.0143
               34      Vir  Alpha      18 (A1)      0.0319
               38      Vir  Alpha      19 (A1)      0.0450
               43      Vir  Alpha      21 (A1)      0.0629
               49      Vir  Alpha      23 (A1)      0.0734
               60      Vir  Alpha      28 (A1)      0.1690
               62      Vir  Alpha      29 (A1)      0.1761
               30      Vir  Beta       16 (A1)      0.0143
               34      Vir  Beta       18 (A1)      0.0319
               38      Vir  Beta       19 (A1)      0.0450
               43      Vir  Beta       21 (A1)      0.0629
               49      Vir  Beta       23 (A1)      0.0734
               60      Vir  Beta       28 (A1)      0.1690
               62      Vir  Beta       29 (A1)      0.1761


 EOMEE transition 8/A1
 Total energy = -683.11652516 a.u.  Excitation energy = 206.0552 eV.
 R0^2 = 0.0000  R1^2 = 0.8599  R2_CCVV^2 = 0.0036  R2_COVV^2 = 0.0682  Res^2 = 1.88e-05
 Conv-d = yes

 Amplitude    Transitions between orbitals
  0.4259       3 (B1) A                  ->    10 (B1) A                  
  0.4259       3 (B1) B                  ->    10 (B1) B                  
  0.2734       3 (B1) A                  ->    11 (B1) A                  
  0.2734       3 (B1) B                  ->    11 (B1) B                  
 -0.2649       3 (B1) A                  ->    12 (B1) A                  
 -0.2649       3 (B1) B                  ->    12 (B1) B                  
  0.1831       3 (B1) A                  ->    13 (B1) A                  
  0.1831       3 (B1) B                  ->    13 (B1) B                  
 -0.1475       3 (B1) A                  ->    14 (B1) A                  
 -0.1475       3 (B1) B                  ->    14 (B1) B                  
 -0.1010       3 (B1) A                  ->    18 (B1) A                  
 -0.1010       3 (B1) B                  ->    18 (B1) B                  

              Summary of significant orbitals:

               Number  Type             Irrep      Energy
               10      Occ  Alpha       3 (B1)     -8.0312
               10      Occ  Beta        3 (B1)     -8.0312
               31      Vir  Alpha      10 (B1)      0.0202
               35      Vir  Alpha      11 (B1)      0.0334
               40      Vir  Alpha      12 (B1)      0.0538
               45      Vir  Alpha      13 (B1)      0.0647
               48      Vir  Alpha      14 (B1)      0.0702
               61      Vir  Alpha      18 (B1)      0.1724
               31      Vir  Beta       10 (B1)      0.0202
               35      Vir  Beta       11 (B1)      0.0334
               40      Vir  Beta       12 (B1)      0.0538
               45      Vir  Beta       13 (B1)      0.0647
               48      Vir  Beta       14 (B1)      0.0702
               61      Vir  Beta       18 (B1)      0.1724


 EOMEE transition 9/A1
 Total energy = -683.11212905 a.u.  Excitation energy = 206.1748 eV.
 R0^2 = 0.0000  R1^2 = 0.8600  R2_CCVV^2 = 0.0036  R2_COVV^2 = 0.0682  Res^2 = 1.36e-05
 Conv-d = yes

 Amplitude    Transitions between orbitals
  0.3838       1 (B2) A                  ->    5 (B2) A                   
  0.3838       1 (B2) B                  ->    5 (B2) B                   
  0.2961       1 (B2) A                  ->    6 (B2) A                   
  0.2961       1 (B2) B                  ->    6 (B2) B                   
  0.2361       1 (B2) A                  ->    7 (B2) A                   
  0.2361       1 (B2) B                  ->    7 (B2) B                   
 -0.2098       1 (B2) A                  ->    8 (B2) A                   
 -0.2098       1 (B2) B                  ->    8 (B2) B                   
 -0.1640       7 (A1) A                  ->    18 (A1) A                  
 -0.1640       7 (A1) B                  ->    18 (A1) B                  
 -0.1148       1 (B2) A                  ->    9 (B2) A                   
 -0.1148       1 (B2) B                  ->    9 (B2) B                   

              Summary of significant orbitals:

               Number  Type             Irrep      Energy
               9       Occ  Alpha       7 (A1)     -8.0343
               11      Occ  Alpha       1 (B2)     -8.0311
               9       Occ  Beta        7 (A1)     -8.0343
               11      Occ  Beta        1 (B2)     -8.0311
               34      Vir  Alpha      18 (A1)      0.0319
               33      Vir  Alpha       5 (B2)      0.0317
               37      Vir  Alpha       6 (B2)      0.0436
               42      Vir  Alpha       7 (B2)      0.0559
               44      Vir  Alpha       8 (B2)      0.0632
               47      Vir  Alpha       9 (B2)      0.0694
               34      Vir  Beta       18 (A1)      0.0319
               33      Vir  Beta        5 (B2)      0.0317
               37      Vir  Beta        6 (B2)      0.0436
               42      Vir  Beta        7 (B2)      0.0559
               44      Vir  Beta        8 (B2)      0.0632
               47      Vir  Beta        9 (B2)      0.0694


 EOMEE transition 10/A1
 Total energy = -683.11138671 a.u.  Excitation energy = 206.1950 eV.
 R0^2 = 0.0000  R1^2 = 0.8600  R2_CCVV^2 = 0.0036  R2_COVV^2 = 0.0682  Res^2 = 2.00e-05
 Conv-d = yes

 Amplitude    Transitions between orbitals
 -0.4143       7 (A1) A                  ->    18 (A1) A                  
 -0.4143       7 (A1) B                  ->    18 (A1) B                  
  0.2398       7 (A1) A                  ->    20 (A1) A                  
  0.2398       7 (A1) B                  ->    20 (A1) B                  
  0.2033       7 (A1) A                  ->    16 (A1) A                  
  0.2033       7 (A1) B                  ->    16 (A1) B                  
  0.1503       7 (A1) A                  ->    26 (A1) A                  
  0.1503       7 (A1) B                  ->    26 (A1) B                  
 -0.1446       1 (B2) A                  ->    5 (B2) A                   
 -0.1446       1 (B2) B                  ->    5 (B2) B                   
 -0.1379       7 (A1) A                  ->    19 (A1) A                  
 -0.1379       7 (A1) B                  ->    19 (A1) B                  
 -0.1367       1 (B2) A                  ->    6 (B2) A                   
 -0.1367       1 (B2) B                  ->    6 (B2) B                   
 -0.1097       7 (A1) A                  ->    27 (A1) A                  
 -0.1097       7 (A1) B                  ->    27 (A1) B                  
 -0.1077       1 (B2) A                  ->    7 (B2) A                   
 -0.1077       1 (B2) B                  ->    7 (B2) B                   
  0.1067       7 (A1) A                  ->    21 (A1) A                  
  0.1067       7 (A1) B                  ->    21 (A1) B                  

              Summary of significant orbitals:

               Number  Type             Irrep      Energy
               9       Occ  Alpha       7 (A1)     -8.0343
               11      Occ  Alpha       1 (B2)     -8.0311
               9       Occ  Beta        7 (A1)     -8.0343
               11      Occ  Beta        1 (B2)     -8.0311
               30      Vir  Alpha      16 (A1)      0.0143
               34      Vir  Alpha      18 (A1)      0.0319
               38      Vir  Alpha      19 (A1)      0.0450
               39      Vir  Alpha      20 (A1)      0.0478
               43      Vir  Alpha      21 (A1)      0.0629
               54      Vir  Alpha      26 (A1)      0.0999
               58      Vir  Alpha      27 (A1)      0.1260
               33      Vir  Alpha       5 (B2)      0.0317
               37      Vir  Alpha       6 (B2)      0.0436
               42      Vir  Alpha       7 (B2)      0.0559
               30      Vir  Beta       16 (A1)      0.0143
               34      Vir  Beta       18 (A1)      0.0319
               38      Vir  Beta       19 (A1)      0.0450
               39      Vir  Beta       20 (A1)      0.0478
               43      Vir  Beta       21 (A1)      0.0629
               54      Vir  Beta       26 (A1)      0.0999
               58      Vir  Beta       27 (A1)      0.1260
               33      Vir  Beta        5 (B2)      0.0317
               37      Vir  Beta        6 (B2)      0.0436
               42      Vir  Beta        7 (B2)      0.0559


 EOMEE transition 11/A1
 Total energy = -683.10553641 a.u.  Excitation energy = 206.3542 eV.
 R0^2 = 0.0000  R1^2 = 0.8623  R2_CCVV^2 = 0.0036  R2_COVV^2 = 0.0671  Res^2 = 4.17e-05
 Conv-d = yes

 Amplitude    Transitions between orbitals
  0.4980       7 (A1) A                  ->    17 (A1) A                  
  0.4980       7 (A1) B                  ->    17 (A1) B                  
  0.1927       7 (A1) A                  ->    19 (A1) A                  
  0.1927       7 (A1) B                  ->    19 (A1) B                  
 -0.1856       7 (A1) A                  ->    23 (A1) A                  
 -0.1856       7 (A1) B                  ->    23 (A1) B                  
  0.1839       7 (A1) A                  ->    21 (A1) A                  
  0.1839       7 (A1) B                  ->    21 (A1) B                  
 -0.1513       7 (A1) A                  ->    30 (A1) A                  
 -0.1513       7 (A1) B                  ->    30 (A1) B                  
 -0.1426       7 (A1) A                  ->    24 (A1) A                  
 -0.1426       7 (A1) B                  ->    24 (A1) B                  

              Summary of significant orbitals:

               Number  Type             Irrep      Energy
               9       Occ  Alpha       7 (A1)     -8.0343
               9       Occ  Beta        7 (A1)     -8.0343
               32      Vir  Alpha      17 (A1)      0.0212
               38      Vir  Alpha      19 (A1)      0.0450
               43      Vir  Alpha      21 (A1)      0.0629
               49      Vir  Alpha      23 (A1)      0.0734
               51      Vir  Alpha      24 (A1)      0.0779
               65      Vir  Alpha      30 (A1)      0.1918
               32      Vir  Beta       17 (A1)      0.0212
               38      Vir  Beta       19 (A1)      0.0450
               43      Vir  Beta       21 (A1)      0.0629
               49      Vir  Beta       23 (A1)      0.0734
               51      Vir  Beta       24 (A1)      0.0779
               65      Vir  Beta       30 (A1)      0.1918


 EOMEE transition 12/A1
 Total energy = -683.09455251 a.u.  Excitation energy = 206.6531 eV.
 R0^2 = 0.0000  R1^2 = 0.8602  R2_CCVV^2 = 0.0036  R2_COVV^2 = 0.0681  Res^2 = 2.21e-05
 Conv-d = yes

 Amplitude    Transitions between orbitals
  0.3869       3 (B1) A                  ->    11 (B1) A                  
  0.3869       3 (B1) B                  ->    11 (B1) B                  
  0.3856       3 (B1) A                  ->    12 (B1) A                  
  0.3856       3 (B1) B                  ->    12 (B1) B                  
  0.2305       3 (B1) A                  ->    14 (B1) A                  
  0.2305       3 (B1) B                  ->    14 (B1) B                  
  0.1438       3 (B1) A                  ->    15 (B1) A                  
  0.1438       3 (B1) B                  ->    15 (B1) B                  
  0.1127       3 (B1) A                  ->    10 (B1) A                  
  0.1127       3 (B1) B                  ->    10 (B1) B                  
  0.1093       3 (B1) A                  ->    18 (B1) A                  
  0.1093       3 (B1) B                  ->    18 (B1) B                  
 -0.1054       3 (B1) A                  ->    17 (B1) A                  
 -0.1054       3 (B1) B                  ->    17 (B1) B                  

              Summary of significant orbitals:

               Number  Type             Irrep      Energy
               10      Occ  Alpha       3 (B1)     -8.0312
               10      Occ  Beta        3 (B1)     -8.0312
               31      Vir  Alpha      10 (B1)      0.0202
               35      Vir  Alpha      11 (B1)      0.0334
               40      Vir  Alpha      12 (B1)      0.0538
               48      Vir  Alpha      14 (B1)      0.0702
               50      Vir  Alpha      15 (B1)      0.0744
               57      Vir  Alpha      17 (B1)      0.1061
               61      Vir  Alpha      18 (B1)      0.1724
               31      Vir  Beta       10 (B1)      0.0202
               35      Vir  Beta       11 (B1)      0.0334
               40      Vir  Beta       12 (B1)      0.0538
               48      Vir  Beta       14 (B1)      0.0702
               50      Vir  Beta       15 (B1)      0.0744
               57      Vir  Beta       17 (B1)      0.1061
               61      Vir  Beta       18 (B1)      0.1724


 EOMEE transition 13/A1
 Total energy = -683.09083045 a.u.  Excitation energy = 206.7544 eV.
 R0^2 = 0.0000  R1^2 = 0.8617  R2_CCVV^2 = 0.0036  R2_COVV^2 = 0.0673  Res^2 = 1.99e-05
 Conv-d = yes

 Amplitude    Transitions between orbitals
  0.4489       3 (B1) A                  ->    13 (B1) A                  
  0.4489       3 (B1) B                  ->    13 (B1) B                  
 -0.2451       3 (B1) A                  ->    10 (B1) A                  
 -0.2451       3 (B1) B                  ->    10 (B1) B                  
  0.1952       3 (B1) A                  ->    11 (B1) A                  
  0.1952       3 (B1) B                  ->    11 (B1) B                  
 -0.1760       3 (B1) A                  ->    16 (B1) A                  
 -0.1760       3 (B1) B                  ->    16 (B1) B                  
  0.1646       3 (B1) A                  ->    17 (B1) A                  
  0.1646       3 (B1) B                  ->    17 (B1) B                  
  0.1493       3 (B1) A                  ->    14 (B1) A                  
  0.1493       3 (B1) B                  ->    14 (B1) B                  

              Summary of significant orbitals:

               Number  Type             Irrep      Energy
               10      Occ  Alpha       3 (B1)     -8.0312
               10      Occ  Beta        3 (B1)     -8.0312
               31      Vir  Alpha      10 (B1)      0.0202
               35      Vir  Alpha      11 (B1)      0.0334
               45      Vir  Alpha      13 (B1)      0.0647
               48      Vir  Alpha      14 (B1)      0.0702
               53      Vir  Alpha      16 (B1)      0.0957
               57      Vir  Alpha      17 (B1)      0.1061
               31      Vir  Beta       10 (B1)      0.0202
               35      Vir  Beta       11 (B1)      0.0334
               45      Vir  Beta       13 (B1)      0.0647
               48      Vir  Beta       14 (B1)      0.0702
               53      Vir  Beta       16 (B1)      0.0957
               57      Vir  Beta       17 (B1)      0.1061


 EOMEE transition 14/A1
 Total energy = -683.08957396 a.u.  Excitation energy = 206.7886 eV.
 R0^2 = 0.0000  R1^2 = 0.8602  R2_CCVV^2 = 0.0036  R2_COVV^2 = 0.0681  Res^2 = 8.84e-05
 Conv-d = yes

 Amplitude    Transitions between orbitals
  0.4571       1 (B2) A                  ->    8 (B2) A                   
  0.4571       1 (B2) B                  ->    8 (B2) B                   
  0.2988       1 (B2) A                  ->    6 (B2) A                   
  0.2988       1 (B2) B                  ->    6 (B2) B                   
  0.2178       1 (B2) A                  ->    9 (B2) A                   
  0.2178       1 (B2) B                  ->    9 (B2) B                   
  0.1979       1 (B2) A                  ->    5 (B2) A                   
  0.1979       1 (B2) B                  ->    5 (B2) B                   
 -0.1742       1 (B2) A                  ->    7 (B2) A                   
 -0.1742       1 (B2) B                  ->    7 (B2) B                   

              Summary of significant orbitals:

               Number  Type             Irrep      Energy
               11      Occ  Alpha       1 (B2)     -8.0311
               11      Occ  Beta        1 (B2)     -8.0311
               33      Vir  Alpha       5 (B2)      0.0317
               37      Vir  Alpha       6 (B2)      0.0436
               42      Vir  Alpha       7 (B2)      0.0559
               44      Vir  Alpha       8 (B2)      0.0632
               47      Vir  Alpha       9 (B2)      0.0694
               33      Vir  Beta        5 (B2)      0.0317
               37      Vir  Beta        6 (B2)      0.0436
               42      Vir  Beta        7 (B2)      0.0559
               44      Vir  Beta        8 (B2)      0.0632
               47      Vir  Beta        9 (B2)      0.0694


 EOMEE transition 15/A1
 Total energy = -683.08919865 a.u.  Excitation energy = 206.7988 eV.
 R0^2 = 0.0000  R1^2 = 0.8593  R2_CCVV^2 = 0.0036  R2_COVV^2 = 0.0685  Res^2 = 3.00e-05
 Conv-d = yes

 Amplitude    Transitions between orbitals
 -0.3478       7 (A1) A                  ->    20 (A1) A                  
 -0.3478       7 (A1) B                  ->    20 (A1) B                  
 -0.2820       7 (A1) A                  ->    21 (A1) A                  
 -0.2820       7 (A1) B                  ->    21 (A1) B                  
 -0.2706       7 (A1) A                  ->    22 (A1) A                  
 -0.2706       7 (A1) B                  ->    22 (A1) B                  
 -0.2406       7 (A1) A                  ->    18 (A1) A                  
 -0.2406       7 (A1) B                  ->    18 (A1) B                  
  0.1372       7 (A1) A                  ->    16 (A1) A                  
  0.1372       7 (A1) B                  ->    16 (A1) B                  
 -0.1359       7 (A1) A                  ->    24 (A1) A                  
 -0.1359       7 (A1) B                  ->    24 (A1) B                  
  0.1257       7 (A1) A                  ->    25 (A1) A                  
  0.1257       7 (A1) B                  ->    25 (A1) B                  

              Summary of significant orbitals:

               Number  Type             Irrep      Energy
               9       Occ  Alpha       7 (A1)     -8.0343
               9       Occ  Beta        7 (A1)     -8.0343
               30      Vir  Alpha      16 (A1)      0.0143
               34      Vir  Alpha      18 (A1)      0.0319
               39      Vir  Alpha      20 (A1)      0.0478
               43      Vir  Alpha      21 (A1)      0.0629
               46      Vir  Alpha      22 (A1)      0.0682
               51      Vir  Alpha      24 (A1)      0.0779
               52      Vir  Alpha      25 (A1)      0.0912
               30      Vir  Beta       16 (A1)      0.0143
               34      Vir  Beta       18 (A1)      0.0319
               39      Vir  Beta       20 (A1)      0.0478
               43      Vir  Beta       21 (A1)      0.0629
               46      Vir  Beta       22 (A1)      0.0682
               51      Vir  Beta       24 (A1)      0.0779
               52      Vir  Beta       25 (A1)      0.0912


 EOMEE transition 16/A1
 Total energy = -683.08665882 a.u.  Excitation energy = 206.8679 eV.
 R0^2 = 0.0000  R1^2 = 0.8612  R2_CCVV^2 = 0.0037  R2_COVV^2 = 0.0676  Res^2 = 8.51e-05
 Conv-d = yes

 Amplitude    Transitions between orbitals
  0.3876       1 (B2) A                  ->    7 (B2) A                   
  0.3876       1 (B2) B                  ->    7 (B2) B                   
  0.3847       1 (B2) A                  ->    8 (B2) A                   
  0.3847       1 (B2) B                  ->    8 (B2) B                   
 -0.2369       1 (B2) A                  ->    6 (B2) A                   
 -0.2369       1 (B2) B                  ->    6 (B2) B                   
 -0.2310       1 (B2) A                  ->    9 (B2) A                   
 -0.2310       1 (B2) B                  ->    9 (B2) B                   

              Summary of significant orbitals:

               Number  Type             Irrep      Energy
               11      Occ  Alpha       1 (B2)     -8.0311
               11      Occ  Beta        1 (B2)     -8.0311
               37      Vir  Alpha       6 (B2)      0.0436
               42      Vir  Alpha       7 (B2)      0.0559
               44      Vir  Alpha       8 (B2)      0.0632
               47      Vir  Alpha       9 (B2)      0.0694
               37      Vir  Beta        6 (B2)      0.0436
               42      Vir  Beta        7 (B2)      0.0559
               44      Vir  Beta        8 (B2)      0.0632
               47      Vir  Beta        9 (B2)      0.0694


 EOMEE transition 17/A1
 Total energy = -683.08471210 a.u.  Excitation energy = 206.9209 eV.
 R0^2 = 0.0000  R1^2 = 0.8593  R2_CCVV^2 = 0.0036  R2_COVV^2 = 0.0685  Res^2 = 4.11e-05
 Conv-d = yes

 Amplitude    Transitions between orbitals
 -0.3965       7 (A1) A                  ->    21 (A1) A                  
 -0.3965       7 (A1) B                  ->    21 (A1) B                  
 -0.2867       7 (A1) A                  ->    24 (A1) A                  
 -0.2867       7 (A1) B                  ->    24 (A1) B                  
  0.2567       7 (A1) A                  ->    20 (A1) A                  
  0.2567       7 (A1) B                  ->    20 (A1) B                  
  0.1841       7 (A1) A                  ->    22 (A1) A                  
  0.1841       7 (A1) B                  ->    22 (A1) B                  
  0.1585       7 (A1) A                  ->    18 (A1) A                  
  0.1585       7 (A1) B                  ->    18 (A1) B                  
  0.1394       7 (A1) A                  ->    25 (A1) A                  
  0.1394       7 (A1) B                  ->    25 (A1) B                  
  0.1161       7 (A1) A                  ->    16 (A1) A                  
  0.1161       7 (A1) B                  ->    16 (A1) B                  

              Summary of significant orbitals:

               Number  Type             Irrep      Energy
               9       Occ  Alpha       7 (A1)     -8.0343
               9       Occ  Beta        7 (A1)     -8.0343
               30      Vir  Alpha      16 (A1)      0.0143
               34      Vir  Alpha      18 (A1)      0.0319
               39      Vir  Alpha      20 (A1)      0.0478
               43      Vir  Alpha      21 (A1)      0.0629
               46      Vir  Alpha      22 (A1)      0.0682
               51      Vir  Alpha      24 (A1)      0.0779
               52      Vir  Alpha      25 (A1)      0.0912
               30      Vir  Beta       16 (A1)      0.0143
               34      Vir  Beta       18 (A1)      0.0319
               39      Vir  Beta       20 (A1)      0.0478
               43      Vir  Beta       21 (A1)      0.0629
               46      Vir  Beta       22 (A1)      0.0682
               51      Vir  Beta       24 (A1)      0.0779
               52      Vir  Beta       25 (A1)      0.0912


 EOMEE transition 18/A1
 Total energy = -683.07942377 a.u.  Excitation energy = 207.0648 eV.
 R0^2 = 0.0000  R1^2 = 0.8616  R2_CCVV^2 = 0.0036  R2_COVV^2 = 0.0674  Res^2 = 5.77e-05
 Conv-d = yes

 Amplitude    Transitions between orbitals
 -0.4078       3 (B1) A                  ->    15 (B1) A                  
 -0.4078       3 (B1) B                  ->    15 (B1) B                  
  0.2644       3 (B1) A                  ->    13 (B1) A                  
  0.2644       3 (B1) B                  ->    13 (B1) B                  
  0.2474       3 (B1) A                  ->    16 (B1) A                  
  0.2474       3 (B1) B                  ->    16 (B1) B                  
  0.2214       3 (B1) A                  ->    12 (B1) A                  
  0.2214       3 (B1) B                  ->    12 (B1) B                  
 -0.2054       3 (B1) A                  ->    17 (B1) A                  
 -0.2054       3 (B1) B                  ->    17 (B1) B                  

              Summary of significant orbitals:

               Number  Type             Irrep      Energy
               10      Occ  Alpha       3 (B1)     -8.0312
               10      Occ  Beta        3 (B1)     -8.0312
               40      Vir  Alpha      12 (B1)      0.0538
               45      Vir  Alpha      13 (B1)      0.0647
               50      Vir  Alpha      15 (B1)      0.0744
               53      Vir  Alpha      16 (B1)      0.0957
               57      Vir  Alpha      17 (B1)      0.1061
               40      Vir  Beta       12 (B1)      0.0538
               45      Vir  Beta       13 (B1)      0.0647
               50      Vir  Beta       15 (B1)      0.0744
               53      Vir  Beta       16 (B1)      0.0957
               57      Vir  Beta       17 (B1)      0.1061


 EOMEE transition 19/A1
 Total energy = -683.07134869 a.u.  Excitation energy = 207.2845 eV.
 R0^2 = 0.0000  R1^2 = 0.8578  R2_CCVV^2 = 0.0036  R2_COVV^2 = 0.0693  Res^2 = 9.58e-05
 Conv-d = yes

 Amplitude    Transitions between orbitals
 -0.4214       7 (A1) A                  ->    24 (A1) A                  
 -0.4214       7 (A1) B                  ->    24 (A1) B                  
 -0.2331       7 (A1) A                  ->    19 (A1) A                  
 -0.2331       7 (A1) B                  ->    19 (A1) B                  
  0.2033       7 (A1) A                  ->    21 (A1) A                  
  0.2033       7 (A1) B                  ->    21 (A1) B                  
[...]
   ||gamma^AB||*||gamma^BA||: 0.839929

 ------------------------------------------------------------------------------
 State A: ccsd: 0/A1
 State B: cvs_eomee_ccsd/rhfref/singlets: 7/B2
 Transition dipole moment (a.u.):
   A->B: 0.000387 (X 0.000000, Y 0.000387, Z 0.000000)
   B->A: 0.000441 (X 0.000000, Y 0.000441, Z 0.000000)
 Oscillator strength (a.u.): 0.000001
 Norm of one-particle transition density matrix:
   A->B: 0.927632;   B->A: 0.905480
   ||gamma^AB||*||gamma^BA||: 0.839952

 ------------------------------------------------------------------------------
 State A: ccsd: 0/A1
 State B: cvs_eomee_ccsd/rhfref/singlets: 8/B2
 Transition dipole moment (a.u.):
   A->B: 0.006821 (X 0.000000, Y -0.006821, Z 0.000000)
   B->A: 0.006633 (X 0.000000, Y -0.006633, Z 0.000000)
 Oscillator strength (a.u.): 0.000228
 Norm of one-particle transition density matrix:
   A->B: 0.927146;   B->A: 0.904670
   ||gamma^AB||*||gamma^BA||: 0.838761

 ------------------------------------------------------------------------------
 State A: ccsd: 0/A1
 State B: cvs_eomee_ccsd/rhfref/singlets: 9/B2
 Transition dipole moment (a.u.):
   A->B: 0.000901 (X 0.000000, Y -0.000901, Z 0.000000)
   B->A: 0.000957 (X 0.000000, Y -0.000957, Z 0.000000)
 Oscillator strength (a.u.): 0.000004
 Norm of one-particle transition density matrix:
   A->B: 0.927074;   B->A: 0.904851
   ||gamma^AB||*||gamma^BA||: 0.838865

 ------------------------------------------------------------------------------
 State A: ccsd: 0/A1
 State B: cvs_eomee_ccsd/rhfref/singlets: 10/B2
 Transition dipole moment (a.u.):
   A->B: 0.010284 (X 0.000000, Y -0.010284, Z 0.000000)
   B->A: 0.010063 (X 0.000000, Y -0.010063, Z 0.000000)
 Oscillator strength (a.u.): 0.000523
 Norm of one-particle transition density matrix:
   A->B: 0.928736;   B->A: 0.906632
   ||gamma^AB||*||gamma^BA||: 0.842022

 ------------------------------------------------------------------------------
 State A: ccsd: 0/A1
 State B: cvs_eomee_ccsd/rhfref/singlets: 11/B2
 Transition dipole moment (a.u.):
   A->B: 0.002318 (X 0.000000, Y 0.002318, Z 0.000000)
   B->A: 0.002258 (X 0.000000, Y 0.002258, Z 0.000000)
 Oscillator strength (a.u.): 0.000026
 Norm of one-particle transition density matrix:
   A->B: 0.927234;   B->A: 0.904164
   ||gamma^AB||*||gamma^BA||: 0.838372

 ------------------------------------------------------------------------------
 State A: ccsd: 0/A1
 State B: cvs_eomee_ccsd/rhfref/singlets: 12/B2
 Transition dipole moment (a.u.):
   A->B: 0.002450 (X 0.000000, Y -0.002450, Z 0.000000)
   B->A: 0.002441 (X 0.000000, Y -0.002441, Z 0.000000)
 Oscillator strength (a.u.): 0.000030
 Norm of one-particle transition density matrix:
   A->B: 0.927170;   B->A: 0.904256
   ||gamma^AB||*||gamma^BA||: 0.838399

 ------------------------------------------------------------------------------
 State A: ccsd: 0/A1
 State B: cvs_eomee_ccsd/rhfref/singlets: 13/B2
 Transition dipole moment (a.u.):
   A->B: 0.000648 (X 0.000000, Y -0.000648, Z 0.000000)
   B->A: 0.000594 (X 0.000000, Y -0.000594, Z 0.000000)
 Oscillator strength (a.u.): 0.000002
 Norm of one-particle transition density matrix:
   A->B: 0.927405;   B->A: 0.904379
   ||gamma^AB||*||gamma^BA||: 0.838726

 ------------------------------------------------------------------------------
 State A: ccsd: 0/A1
 State B: cvs_eomee_ccsd/rhfref/singlets: 14/B2
 Transition dipole moment (a.u.):
   A->B: 0.001839 (X 0.000000, Y -0.001839, Z 0.000000)
   B->A: 0.001795 (X 0.000000, Y -0.001795, Z 0.000000)
 Oscillator strength (a.u.): 0.000017
 Norm of one-particle transition density matrix:
   A->B: 0.927332;   B->A: 0.904235
   ||gamma^AB||*||gamma^BA||: 0.838526

 ------------------------------------------------------------------------------
 State A: ccsd: 0/A1
 State B: cvs_eomee_ccsd/rhfref/singlets: 15/B2
 Transition dipole moment (a.u.):
   A->B: 0.000228 (X 0.000000, Y 0.000228, Z 0.000000)
   B->A: 0.000159 (X 0.000000, Y 0.000159, Z 0.000000)
 Oscillator strength (a.u.): 0.000000
 Norm of one-particle transition density matrix:
   A->B: 0.926579;   B->A: 0.903961
   ||gamma^AB||*||gamma^BA||: 0.837592

 ------------------------------------------------------------------------------
 State A: ccsd: 0/A1
 State B: cvs_eomee_ccsd/rhfref/singlets: 16/B2
 Transition dipole moment (a.u.):
   A->B: 0.001751 (X 0.000000, Y 0.001751, Z 0.000000)
   B->A: 0.001710 (X 0.000000, Y 0.001710, Z 0.000000)
 Oscillator strength (a.u.): 0.000015
 Norm of one-particle transition density matrix:
   A->B: 0.927858;   B->A: 0.904910
   ||gamma^AB||*||gamma^BA||: 0.839629

 ------------------------------------------------------------------------------
 State A: ccsd: 0/A1
 State B: cvs_eomee_ccsd/rhfref/singlets: 17/B2
 Transition dipole moment (a.u.):
   A->B: 0.004225 (X 0.000000, Y -0.004225, Z 0.000000)
   B->A: 0.004180 (X 0.000000, Y -0.004180, Z 0.000000)
 Oscillator strength (a.u.): 0.000090
 Norm of one-particle transition density matrix:
   A->B: 0.925751;   B->A: 0.903347
   ||gamma^AB||*||gamma^BA||: 0.836274

 ------------------------------------------------------------------------------
 State A: ccsd: 0/A1
 State B: cvs_eomee_ccsd/rhfref/singlets: 18/B2
 Transition dipole moment (a.u.):
   A->B: 0.002637 (X 0.000000, Y 0.002637, Z 0.000000)
   B->A: 0.002559 (X 0.000000, Y 0.002559, Z 0.000000)
 Oscillator strength (a.u.): 0.000034
 Norm of one-particle transition density matrix:
   A->B: 0.927012;   B->A: 0.904268
   ||gamma^AB||*||gamma^BA||: 0.838268

 ------------------------------------------------------------------------------
 State A: ccsd: 0/A1
 State B: cvs_eomee_ccsd/rhfref/singlets: 19/B2
 Transition dipole moment (a.u.):
   A->B: 0.001361 (X 0.000000, Y -0.001361, Z 0.000000)
   B->A: 0.001364 (X 0.000000, Y -0.001364, Z 0.000000)
 Oscillator strength (a.u.): 0.000009
 Norm of one-particle transition density matrix:
   A->B: 0.927215;   B->A: 0.904862
   ||gamma^AB||*||gamma^BA||: 0.839001

 ------------------------------------------------------------------------------
 State A: ccsd: 0/A1
 State B: cvs_eomee_ccsd/rhfref/singlets: 20/B2
 Transition dipole moment (a.u.):
   A->B: 0.010995 (X 0.000000, Y -0.010995, Z 0.000000)
   B->A: 0.010831 (X 0.000000, Y -0.010831, Z 0.000000)
 Oscillator strength (a.u.): 0.000605
 Norm of one-particle transition density matrix:
   A->B: 0.926902;   B->A: 0.904865
   ||gamma^AB||*||gamma^BA||: 0.838720


 All requested transition properties have been computed

 Transition Properties:   CPU 899.69 s  wall 198.09 s

 Total ccman2 time:   CPU 209841.76 s  wall 30662.64 s

 80 A1   35 B2   19 A2   59 B1   36 B2   60 B1   81 A1   61 B1                 
  3.782   3.902   3.919   4.022   4.189   4.384   4.442   4.510
 82 A1   62 B1   83 A1   84 A1   85 A1   63 B1   86 A1   87 A1                 
  4.516   5.123   5.263   5.442   5.447   5.754   5.779   6.187
 64 B1   88 A1   65 B1   89 A1   66 B1   90 A1   67 B1   91 A1                 
 10.544  20.635  20.695  20.708  20.824  20.852  21.124  26.795
 92 A1   93 A1   94 A1   68 B1   95 A1   69 B1   96 A1   37 B2                 
 27.056  27.522  80.200  80.266  80.282  80.380  80.405  80.613
 70 B1   97 A1   98 A1   99 A1   71 B1  100 A1   72 B1  101 A1                 
219.412 322.039 322.101 322.118 322.201 322.223 322.3901431.607
102 A1  103 A1  104 A1   73 B1  105 A1   74 B1  106 A1  107 A1                 
*******1431.6801431.7491431.7681431.9088749.8448749.8938749.909
108 A1   75 B1  109 A1   76 B1  110 A1  111 A1  112 A1   77 B1                 
*******8749.9818750.093
113 A1   78 B1  114 A1                                                         

 --------------------------------------------------------------
             Orbital Energies (a.u.) and Symmetries
 --------------------------------------------------------------

 Alpha MOs, Restricted
 -- Occupied --                  
-104.84  -11.31  -11.25  -11.25  -11.25  -11.25  -11.25  -10.57
  1 A1    2 A1    3 A1    1 B1    4 A1    2 B1    5 A1    6 A1                 
 -8.034  -8.031  -8.031  -1.196  -1.124  -1.036  -1.000  -0.850
  7 A1    3 B1    1 B2    8 A1    9 A1    4 B1   10 A1    5 B1                 
 -0.823  -0.715  -0.651  -0.651  -0.607  -0.593  -0.547  -0.520
 11 A1   12 A1    6 B1   13 A1    7 B1   14 A1    2 B2    8 B1                 
 -0.515  -0.471  -0.456  -0.354  -0.338
 15 A1    3 B2    9 B1    1 A2    4 B2                                         
 -- Virtual --                   
  0.014   0.020   0.021   0.032   0.032   0.033   0.043   0.044
 16 A1   10 B1   17 A1    5 B2   18 A1   11 B1    2 A2    6 B2                 
  0.045   0.048   0.054   0.055   0.056   0.063   0.063   0.065
 19 A1   20 A1   12 B1    3 A2    7 B2   21 A1    8 B2   13 B1                 
  0.068   0.069   0.070   0.073   0.074   0.078   0.091   0.096
 22 A1    9 B2   14 B1   23 A1   15 B1   24 A1   25 A1   16 B1                 
  0.100   0.102   0.104   0.106   0.126   0.163   0.169   0.172
 26 A1    4 A2   10 B2   17 B1   27 A1   11 B2   28 A1   18 B1                 
  0.176   0.180   0.181   0.192   0.211   0.213   0.214   0.222
 29 A1    5 A2   12 B2   30 A1   19 B1   31 A1   13 B2   32 A1                 
  0.222   0.229   0.232   0.235   0.238   0.243   0.244   0.247
 20 B1   14 B2    6 A2   21 B1   33 A1   15 B2   34 A1   22 B1                 
  0.252   0.264   0.280   0.291   0.295   0.303   0.314   0.330
 23 B1   35 A1   36 A1   24 B1   25 B1   37 A1   38 A1   26 B1                 
  0.357   0.366   0.378   0.414   0.418   0.432   0.441   0.491
 16 B2   39 A1   40 A1   41 A1   27 B1   42 A1   28 B1   43 A1                 
  0.500   0.509   0.509   0.620   0.631   0.643   0.652   0.662
 29 B1   44 A1   30 B1   45 A1   31 B1   32 B1   17 B2   46 A1                 
  0.720   0.730   0.742   0.743   0.745   0.772   0.782   0.794
 47 A1   33 B1   48 A1   18 B2   34 B1    7 A2   19 B2   35 B1                 
  0.821   0.822   0.823   0.881   0.884   0.898   0.934   0.936
 49 A1    8 A2   20 B2   50 A1   21 B2   51 A1   52 A1   36 B1                 
  0.955   0.973   1.018   1.024   1.039   1.060   1.067   1.082
 37 B1   53 A1   38 B1   54 A1   55 A1   39 B1   22 B2   56 A1                 
  1.095   1.100   1.133   1.139   1.173   1.192   1.221   1.225
 57 A1   40 B1   41 B1    9 A2   58 A1   42 B1   59 A1   23 B2                 
  1.235   1.273   1.309   1.352   1.376   1.443   1.467   1.475
 10 A2   60 A1   11 A2   24 B2   12 A2   61 A1   43 B1   62 A1                 
  1.581   1.663   1.728   1.776   1.787   1.824   1.831   1.844
 25 B2   63 A1   44 B1   64 A1   45 B1   26 B2   13 A2   65 A1                 
  1.892   1.908   1.909   1.963   1.999   2.008   2.042   2.103
 27 B2   66 A1   46 B1   67 A1   47 B1   28 B2   14 A2   48 B1                 
  2.168   2.218   2.220   2.221   2.236   2.243   2.287   2.323
 68 A1   49 B1   15 A2   29 B2   50 B1   69 A1   30 B2   70 A1                 
  2.352   2.368   2.392   2.579   2.611   2.647   2.684   2.748
 51 B1   16 A2   71 A1   31 B2   52 B1   17 A2   32 B2   72 A1                 
  2.777   2.798   2.810   2.867   2.914   2.935   2.981   2.997
 53 B1   73 A1   54 B1   55 B1   74 A1   75 A1   76 A1   77 A1                 
  3.009   3.026   3.038   3.043   3.066   3.191   3.194   3.205
 56 B1   78 A1   79 A1   57 B1   33 B2   34 B2   18 A2   58 B1                 
  3.210   3.283   3.288   3.321   3.473   3.567   3.631   3.757
 80 A1   35 B2   19 A2   59 B1   36 B2   60 B1   81 A1   61 B1                 
  3.782   3.902   3.919   4.022   4.189   4.384   4.442   4.510
 82 A1   62 B1   83 A1   84 A1   85 A1   63 B1   86 A1   87 A1                 
  4.516   5.123   5.263   5.442   5.447   5.754   5.779   6.187
 64 B1   88 A1   65 B1   89 A1   66 B1   90 A1   67 B1   91 A1                 
 10.544  20.635  20.695  20.708  20.824  20.852  21.124  26.795
 92 A1   93 A1   94 A1   68 B1   95 A1   69 B1   96 A1   37 B2                 
 27.056  27.522  80.200  80.266  80.282  80.380  80.405  80.613
 70 B1   97 A1   98 A1   99 A1   71 B1  100 A1   72 B1  101 A1                 
219.412 322.039 322.101 322.118 322.201 322.223 322.3901431.607
102 A1  103 A1  104 A1   73 B1  105 A1   74 B1  106 A1  107 A1                 
*******1431.6801431.7491431.7681431.9088749.8448749.8938749.909
108 A1   75 B1  109 A1   76 B1  110 A1  111 A1  112 A1   77 B1                 
*******8749.9818750.093
113 A1   78 B1  114 A1                                                         

 Beta MOs, Restricted
 -- Occupied --                  
-104.84  -11.31  -11.25  -11.25  -11.25  -11.25  -11.25  -10.57
  1 A1    2 A1    3 A1    1 B1    4 A1    2 B1    5 A1    6 A1                 
 -8.034  -8.031  -8.031  -1.196  -1.124  -1.036  -1.000  -0.850
  7 A1    3 B1    1 B2    8 A1    9 A1    4 B1   10 A1    5 B1                 
 -0.823  -0.715  -0.651  -0.651  -0.607  -0.593  -0.547  -0.520
 11 A1   12 A1    6 B1   13 A1    7 B1   14 A1    2 B2    8 B1                 
 -0.515  -0.471  -0.456  -0.354  -0.338
 15 A1    3 B2    9 B1    1 A2    4 B2                                         
 -- Virtual --                   
  0.014   0.020   0.021   0.032   0.032   0.033   0.043   0.044
 16 A1   10 B1   17 A1    5 B2   18 A1   11 B1    2 A2    6 B2                 
  0.045   0.048   0.054   0.055   0.056   0.063   0.063   0.065
 19 A1   20 A1   12 B1    3 A2    7 B2   21 A1    8 B2   13 B1                 
  0.068   0.069   0.070   0.073   0.074   0.078   0.091   0.096
 22 A1    9 B2   14 B1   23 A1   15 B1   24 A1   25 A1   16 B1                 
  0.100   0.102   0.104   0.106   0.126   0.163   0.169   0.172
 26 A1    4 A2   10 B2   17 B1   27 A1   11 B2   28 A1   18 B1                 
  0.176   0.180   0.181   0.192   0.211   0.213   0.214   0.222
 29 A1    5 A2   12 B2   30 A1   19 B1   31 A1   13 B2   32 A1                 
  0.222   0.229   0.232   0.235   0.238   0.243   0.244   0.247
 20 B1   14 B2    6 A2   21 B1   33 A1   15 B2   34 A1   22 B1                 
  0.252   0.264   0.280   0.291   0.295   0.303   0.314   0.330
 23 B1   35 A1   36 A1   24 B1   25 B1   37 A1   38 A1   26 B1                 
  0.357   0.366   0.378   0.414   0.418   0.432   0.441   0.491
 16 B2   39 A1   40 A1   41 A1   27 B1   42 A1   28 B1   43 A1                 
  0.500   0.509   0.509   0.620   0.631   0.643   0.652   0.662
 29 B1   44 A1   30 B1   45 A1   31 B1   32 B1   17 B2   46 A1                 
  0.720   0.730   0.742   0.743   0.745   0.772   0.782   0.794
 47 A1   33 B1   48 A1   18 B2   34 B1    7 A2   19 B2   35 B1                 
  0.821   0.822   0.823   0.881   0.884   0.898   0.934   0.936
 49 A1    8 A2   20 B2   50 A1   21 B2   51 A1   52 A1   36 B1                 
  0.955   0.973   1.018   1.024   1.039   1.060   1.067   1.082
 37 B1   53 A1   38 B1   54 A1   55 A1   39 B1   22 B2   56 A1                 
  1.095   1.100   1.133   1.139   1.173   1.192   1.221   1.225
 57 A1   40 B1   41 B1    9 A2   58 A1   42 B1   59 A1   23 B2                 
  1.235   1.273   1.309   1.352   1.376   1.443   1.467   1.475
 10 A2   60 A1   11 A2   24 B2   12 A2   61 A1   43 B1   62 A1                 
  1.581   1.663   1.728   1.776   1.787   1.824   1.831   1.844
 25 B2   63 A1   44 B1   64 A1   45 B1   26 B2   13 A2   65 A1                 
  1.892   1.908   1.909   1.963   1.999   2.008   2.042   2.103
 27 B2   66 A1   46 B1   67 A1   47 B1   28 B2   14 A2   48 B1                 
  2.168   2.218   2.220   2.221   2.236   2.243   2.287   2.323
 68 A1   49 B1   15 A2   29 B2   50 B1   69 A1   30 B2   70 A1                 
  2.352   2.368   2.392   2.579   2.611   2.647   2.684   2.748
 51 B1   16 A2   71 A1   31 B2   52 B1   17 A2   32 B2   72 A1                 
  2.777   2.798   2.810   2.867   2.914   2.935   2.981   2.997
 53 B1   73 A1   54 B1   55 B1   74 A1   75 A1   76 A1   77 A1                 
  3.009   3.026   3.038   3.043   3.066   3.191   3.194   3.205
 56 B1   78 A1   79 A1   57 B1   33 B2   34 B2   18 A2   58 B1                 
  3.210   3.283   3.288   3.321   3.473   3.567   3.631   3.757
 80 A1   35 B2   19 A2   59 B1   36 B2   60 B1   81 A1   61 B1                 
  3.782   3.902   3.919   4.022   4.189   4.384   4.442   4.510
 82 A1   62 B1   83 A1   84 A1   85 A1   63 B1   86 A1   87 A1                 
  4.516   5.123   5.263   5.442   5.447   5.754   5.779   6.187
 64 B1   88 A1   65 B1   89 A1   66 B1   90 A1   67 B1   91 A1                 
 10.544  20.635  20.695  20.708  20.824  20.852  21.124  26.795
 92 A1   93 A1   94 A1   68 B1   95 A1   69 B1   96 A1   37 B2                 
 27.056  27.522  80.200  80.266  80.282  80.380  80.405  80.613
 70 B1   97 A1   98 A1   99 A1   71 B1  100 A1   72 B1  101 A1                 
219.412 322.039 322.101 322.118 322.201 322.223 322.3901431.607
102 A1  103 A1  104 A1   73 B1  105 A1   74 B1  106 A1  107 A1                 
*******1431.6801431.7491431.7681431.9088749.8448749.8938749.909
108 A1   75 B1  109 A1   76 B1  110 A1  111 A1  112 A1   77 B1                 
*******8749.9818750.093
113 A1   78 B1  114 A1                                                         
 --------------------------------------------------------------

          Ground-State Mulliken Net Atomic Charges

     Atom                 Charge (a.u.)
  ----------------------------------------
      1 H                     0.191423
      2 C                    -0.467624
      3 C                    -0.325326
      4 H                     0.223694
      5 C                    -0.337041
      6 H                     0.184041
      7 C                    -0.325326
      8 H                     0.223694
      9 C                    -0.467624
     10 H                     0.191423
     11 C                     0.389122
     12 Cl                    0.519542
  ----------------------------------------
  Sum of atomic charges =     0.000000

 -----------------------------------------------------------------
                    Cartesian Multipole Moments
 -----------------------------------------------------------------
    Charge (ESU x 10^10)
                -0.0000
    Dipole Moment (Debye)
         X      -0.0000      Y      -0.0000      Z      -1.9696
       Tot       1.9696
    Quadrupole Moments (Debye-Ang)
        XX     -42.4455     XY      -0.0000     YY     -52.7498
        XZ       0.0000     YZ       0.0000     ZZ     -46.7168
    Octopole Moments (Debye-Ang^2)
       XXX      -0.0000    XXY      -0.0000    XYY       0.0000
       YYY      -0.0000    XXZ      -1.4039    XYZ      -0.0000
       YYZ       7.5122    XZZ       0.0000    YZZ      -0.0000
       ZZZ      -6.2786
    Hexadecapole Moments (Debye-Ang^3)
      XXXX    -275.2649   XXXY      -0.0000   XXYY     -69.5895
      XYYY      -0.0000   YYYY     -64.7746   XXXZ       0.0000
      XXYZ       0.0000   XYYZ      -0.0000   YYYZ       0.0000
      XXZZ    -181.1018   XYZZ      -0.0000   YYZZ    -165.9787
      XZZZ       0.0000   YZZZ       0.0000   ZZZZ    -787.0201
Archival summary:
1\1\n-62-23-16\SP\ProcedureUnspecified\BasisUnspecified\l165\malop\MonJan2119:57:312019MonJan2119:57:312019\0\\#,ProcedureUnspecified,BasisUnspecified,\\0,1\Cl\C,1,1.73093\C,2,1.39121,1,119.398\H,3,1.08039,2,119.798,1,0,0\C,2,1.39121,1,119.398,3,-180,0\H,5,1.08039,2,119.798,1,0,0\C,3,1.39191,2,119.079,1,180,0\H,7,1.08135,3,119.367,2,-180,0\C,5,1.39191,2,119.079,1,-180,0\H,9,1.08135,5,119.367,2,180,0\C,7,1.39245,3,120.451,2,0,0\H,11,1.08085,7,120.132,3,-180,0\\HF=-689.680939\\@

 Total job time:  30754.74s(wall), 210320.88s(cpu) 
 Mon Jan 21 19:57:31 2019

        *************************************************************
        *                                                           *
        *  Thank you very much for using Q-Chem.  Have a nice day.  *
        *                                                           *
        *************************************************************


 -----------------------------------------------------------------
