n-62-29-5 10.66.29
Q-Chem Developer Version! Running on 10.66.29.*
                  Welcome to Q-Chem
     A Quantum Leap Into The Future Of Chemistry


 Q-Chem 5.1, Q-Chem, Inc., Pleasanton, CA (2018)

 Yihan Shao,  Zhengting Gan,  E. Epifanovsky,  A. T. B. Gilbert,  M. Wormit,  
 J. Kussmann,  A. W. Lange,  A. Behn,  Jia Deng,  Xintian Feng,  D. Ghosh,  
 M. Goldey,  P. R. Horn,  L. D. Jacobson,  I. Kaliman,  T. Kus,  A. Landau,  
 Jie Liu,  E. I. Proynov,  R. M. Richard,  R. P. Steele,  E. J. Sundstrom,  
 H. L. Woodcock III,  P. M. Zimmerman,  D. Zuev,  B. Albrecht,  E. Alguire,  
 S. A. Baeppler,  D. Barton,  Z. Benda,  Y. A. Bernard,  E. J. Berquist,  
 K. B. Bravaya,  H. Burton,  D. Casanova,  Chun-Min Chang,  Yunqing Chen,  
 A. Chien,  K. D. Closser,  M. P. Coons,  S. Coriani,  S. Dasgupta,  
 A. L. Dempwolff,  M. Diedenhofen,  Hainam Do,  R. G. Edgar,  Po-Tung Fang,  
 S. Faraji,  S. Fatehi,  Qingguo Feng,  K. D. Fenk,  J. Fosso-Tande,  
 Qinghui Ge,  A. Ghysels,  G. Gidofalvi,  J. Gomes,  J. Gonthier,  A. Gunina,  
 M. W. D. Hanson-Heine,  P. H. P. Harbach,  A. W. Hauser,  J. E. Herr,  
 E. G. Hohenstein,  Z. C. Holden,  Kerwin Hui,  T.-C. Jagau,  Hyunjun Ji,  
 B. Kaduk,  K. Khistyaev,  Jaehoon Kim,  P. Klunzinger,  K. Koh,  
 D. Kosenkov,  L. Koulias,  T. Kowalczyk,  C. M. Krauter,  A. Kunitsa,  
 Ka Un Lao,  A. Laurent,  K. V. Lawler,  Joonho Lee,  D. Lefrancois,  
 S. Lehtola,  D. S. Levine,  Yi-Pei Li,  You-Sheng Lin,  Fenglai Liu,  
 E. Livshits,  A. Luenser,  P. Manohar,  E. Mansoor,  S. F. Manzer,  
 Shan-Ping Mao,  Yuezhi Mao,  N. Mardirossian,  A. V. Marenich,  
 T. Markovich,  L. A. Martinez-Martinez,  S. A. Maurer,  N. J. Mayhall,  
 S. C. McKenzie,  J.-M. Mewes,  A. F. Morrison,  J. W. Mullinax,  K. Nanda,  
 T. S. Nguyen-Beck,  R. Olivares-Amaya,  J. A. Parkhill,  T. M. Perrine,  
 F. Plasser,  P. Pokhilko,  S. Prager,  A. Prociuk,  E. Ramos,  D. R. Rehn,  
 F. Rob,  M. Schneider,  N. Sergueev,  S. M. Sharada,  S. Sharma,  
 D. W. Small,  T. Stauch,  T. Stein,  Yu-Chuan Su,  A. J. W. Thom,  
 A. Tkatchenko,  T. Tsuchimochi,  N. M. Tubman,  L. Vogt,  M. L. Vidal,  
 O. Vydrov,  M. A. Watson,  J. Wenzel,  M. de Wergifosse,  T. A. Wesolowski,  
 A. White,  J. Witte,  A. Yamada,  Jun Yang,  K. Yao,  S. Yeganeh,  
 S. R. Yost,  Zhi-Qiang You,  A. Zech,  Igor Ying Zhang,  Xing Zhang,  
 Yan Zhao,  Ying Zhu,  B. R. Brooks,  G. K. L. Chan,  C. J. Cramer,  
 M. S. Gordon,  W. J. Hehre,  A. Klamt,  M. W. Schmidt,  C. D. Sherrill,  
 D. G. Truhlar,  A. Aspuru-Guzik,  R. Baer,  A. T. Bell,  N. A. Besley,  
 Jeng-Da Chai,  R. A. DiStasio Jr.,  A. Dreuw,  B. D. Dunietz,  
 T. R. Furlani,  Chao-Ping Hsu,  Yousung Jung,  Jing Kong,  D. S. Lambrecht,  
 WanZhen Liang,  C. Ochsenfeld,  V. A. Rassolov,  L. V. Slipchenko,  
 J. E. Subotnik,  T. Van Voorhis,  J. M. Herbert,  A. I. Krylov,  
 P. M. W. Gill,  M. Head-Gordon

 Contributors to earlier versions of Q-Chem not listed above: 
 R. D. Adamson,  B. Austin,  J. Baker,  G. J. O. Beran,  K. Brandhorst,  
 S. T. Brown,  E. F. C. Byrd,  A. K. Chakraborty,  C.-L. Cheng,  
 Siu Hung Chien,  D. M. Chipman,  D. L. Crittenden,  H. Dachsel,  
 R. J. Doerksen,  A. D. Dutoi,  L. Fusti-Molnar,  W. A. Goddard III,  
 A. Golubeva-Zadorozhnaya,  S. R. Gwaltney,  G. Hawkins,  A. Heyden,  
 S. Hirata,  G. Kedziora,  F. J. Keil,  C. Kelley,  Jihan Kim,  R. A. King,  
 R. Z. Khaliullin,  P. P. Korambath,  W. Kurlancheek,  A. M. Lee,  M. S. Lee,  
 S. V. Levchenko,  Ching Yeh Lin,  D. Liotard,  R. C. Lochan,  I. Lotan,  
 P. E. Maslen,  N. Nair,  D. P. O'Neill,  D. Neuhauser,  E. Neuscamman,  
 C. M. Oana,  R. Olson,  B. Peters,  R. Peverati,  P. A. Pieniazek,  
 Y. M. Rhee,  J. Ritchie,  M. A. Rohrdanz,  E. Rosta,  N. J. Russ,  
 H. F. Schaefer III,  N. E. Schultz,  N. Shenvi,  A. C. Simmonett,  A. Sodt,  
 D. Stuck,  K. S. Thanthiriwatte,  V. Vanovschi,  Tao Wang,  A. Warshel,  
 C. F. Williams,  Q. Wu,  X. Xu,  W. Zhang

 Please cite Q-Chem as follows:
 Y. Shao et al., Mol. Phys. 113, 184-215 (2015)
 DOI: 10.1080/00268976.2014.952696

 Q-Chem 5.1.0 for Intel X86 EM64T Linux

 Parts of Q-Chem use Armadillo 8.300.2 (Tropical Shenanigans).
 http://arma.sourceforge.net/

 Q-Chem begins on Tue Nov 20 14:02:14 2018  

Host: 
0

     Scratch files written to /work1/malop/qc_7469589.hnode2//

Checking the input file for inconsistencies... 	...done.

--------------------------------------------------------------
User input:
--------------------------------------------------------------
$comment
Optimized Cl-Bz, UV-vis
6-311(2+,+)G** with uncontacted core on carbon only
$end

$molecule
0 1
 H        -2.1400320233    0.0000000000    0.5090177858
 C        -1.2120583232    0.0000000000   -0.0442490642
 C        -1.2042956497    0.0000000000   -1.4361358281
 H        -2.1437187877    0.0000000000   -1.9716770234
 C         0.0000000000    0.0000000000   -2.1351330277
 H         0.0000000000    0.0000000000   -3.2159870334
 C         1.2042956497    0.0000000000   -1.4361358281
 H         2.1437187877    0.0000000000   -1.9716770234
 C         1.2120583232    0.0000000000   -0.0442490642
 H         2.1400320233    0.0000000000    0.5090177858
 C         0.0000000000    0.0000000000    0.6386615242
 Cl        0.0000000000    0.0000000000    2.3695929760
$end

$rem
   JOB_TYPE  =  SP
   BASIS  =  general
   METHOD  =  EOM-CCSD
   EE_STATES = [2,2,2,2]
   eom_preconv_singles = true
   n_frozen_core = 7
   cc_trans_prop = true
   use_libqints = 1   !use new int library (will be def in trunk)
   cc_memory = 100000
$end

$basis
H    0
6-311(2+,+)G**
****
C    0
S    1    1.000000
   4.56324000E+03    1.96665000E-03 
S    1    1.000000
   6.82024000E+02    1.52306000E-02 
S    1    1.000000
   1.54973000E+02    7.61269000E-02 
S    1    1.000000
   4.44553000E+01    2.60801000E-01 
S    1    1.000000
   1.30290000E+01    6.16462000E-01 
S    1    1.000000
   1.82773000E+00    2.21006000E-01 
SP   3    1.000000
   2.09642000E+01    1.14660000E-01   4.02487000E-02 
   4.80331000E+00    9.19999000E-01   2.37594000E-01 
   1.45933000E+00   -3.03068000E-03   8.15854000E-01 
SP   1    1.000000
   4.83456000E-01    1.00000000E+00   1.00000000E+00 
SP   1    1.000000
   1.45585000E-01    1.00000000E+00   1.00000000E+00 
SP   1    1.000000
   4.38000000E-02    1.00000000E+00   1.00000000E+00 
SP   1    1.000000
   1.31927711E-02    1.00000000E+00   1.00000000E+00 
D    1    1.000000
   6.26000000E-01    1.00000000E+00 
****
Cl   0
6-311(2+,+)G**
****
$end

--------------------------------------------------------------
 ----------------------------------------------------------------
             Standard Nuclear Orientation (Angstroms)
    I     Atom           X                Y                Z
 ----------------------------------------------------------------
    1      H      -2.1400320233     0.0000000000     0.3814604176
    2      C      -1.2120583232     0.0000000000    -0.1718064324
    3      C      -1.2042956497     0.0000000000    -1.5636931963
    4      H      -2.1437187877     0.0000000000    -2.0992343916
    5      C      -0.0000000000     0.0000000000    -2.2626903959
    6      H      -0.0000000000     0.0000000000    -3.3435444016
    7      C       1.2042956497     0.0000000000    -1.5636931963
    8      H       2.1437187877     0.0000000000    -2.0992343916
    9      C       1.2120583232    -0.0000000000    -0.1718064324
   10      H       2.1400320233    -0.0000000000     0.3814604176
   11      C       0.0000000000    -0.0000000000     0.5111041560
   12      Cl      0.0000000000    -0.0000000000     2.2420356078
 ----------------------------------------------------------------
 Molecular Point Group                 C2v   NOp =  4
 Largest Abelian Subgroup              C2v   NOp =  4
 Nuclear Repulsion Energy =   316.4076139427 hartrees
 There are       29 alpha and       29 beta electrons

 Q-Chem warning in module forms1/BasisType.C, line 1685:

 Setting pure/cartesian flag to 2111 for general basis


 Requested basis set is non-standard
 There are 111 shells and 255 basis functions
MEM_TOTAL is adjusted to CC_MEMORY + MEM_STATIC!
 Total memory of 100192MB is distributed as follows: 
   QALLOC including MEM_STATIC uses 192MB
   MEM_STATIC is set to 192MB
   CCMAN JOB total memory use is  100000MB
 Warning: actual memory use might exceed 100192MB

 Total QAlloc Memory Limit    192 MB
 Mega-Array Size       188 MB
 MEM_STATIC part       192 MB

                       Distance Matrix (Angstroms)
             H (  1)   C (  2)   C (  3)   H (  4)   C (  5)   H (  6)
   C (  2)  1.080389
   C (  3)  2.158524  1.391908
   H (  4)  2.480698  2.140787  1.081351
   C (  5)  3.401657  2.416791  1.392453  2.149941
   H (  6)  4.295975  3.395439  2.148999  2.478677  1.080854
   C (  7)  3.868869  2.788569  2.408591  3.390576  1.392453  2.148999
   H (  8)  4.950189  3.869912  3.390576  4.287438  2.149941  2.478677
   C (  9)  3.397442  2.424117  2.788569  3.869912  2.416791  3.395439
   H ( 10)  4.280064  3.397442  3.868869  4.950189  3.401657  4.295975
   C ( 11)  2.143955  1.391205  2.398981  3.377780  2.773795  3.854649
   Cl( 12)  2.835750  2.701059  3.991729  4.841710  4.504726  5.585580
             C (  7)   H (  8)   C (  9)   H ( 10)   C ( 11)
   H (  8)  1.081351
   C (  9)  1.391908  2.140787
   H ( 10)  2.158524  2.480698  1.080389
   C ( 11)  2.398981  3.377780  1.391205  2.143955
   Cl( 12)  3.991729  4.841710  2.701059  2.835750  1.730931
 
 A cutoff of  1.0D-14 yielded   5292 shell pairs
 There are     31225 function pairs (     33033 Cartesian)
 
 -------------------------------------------------------
 OpenMP Integral Computing Module                       
 Release: version 1.0, May 2013, Q-Chem Inc. Pittsburgh 
 -------------------------------------------------------
 Integral Job Info:
 Integral job number is                      11
 Integral operator is                         1
 short-range coefficients                     0
 long-range coefficients              100000000
 Omega coefficients                           0
 if combine SR and LR in K                    0
 Integral screening is                        0
 Integral computing path is                   2
 max size of driver memory is            800000
 size of driver memory is                593474
 size of scratch memory is              8114252
 max col of scratch BK array               1296
 max len of scratch array in speh3          155
 max len of scratch index in speh4           18
 max int batch size is                      520
 min int batch size is                       52
 fixed nKL is                                52
 max L of basis functions is                  2
 order of int derivative is                   0
 number of shells is                        111
 number of basis is                         262
 number of cartesian basis is               262
 number of contracted shell pairs          5292
 number of primitive shell pairs           7807
 maxK2 (contraction) of shell pair           36
 max number of K2 of shell pair               1
 max number of CS2 of shell pair           1511
 max number of PS2 of shell pair           1511
 mem total for path MDJ                  543004
 -------------------------------------------------------
 Smallest overlap matrix eigenvalue = 1.05E-08
 Linear dependence detected in AO basis
 Number of orthogonalized atomic orbitals = 248
 Maximum deviation from orthogonality = 1.287E-10

 Scale SEOQF with 1.000000e-01/1.000000e-01/1.000000e-01

 Standard Electronic Orientation quadrupole field applied
 Nucleus-field energy     =    -0.0000000161 hartrees
 Guess MOs from core Hamiltonian diagonalization

 -----------------------------------------------------------------------
  General SCF calculation program by
  Eric Jon Sundstrom, Paul Horn, Yuezhi Mao, Dmitri Zuev, Alec White,
  David Stuck, Shaama M.S., Shane Yost, Joonho Lee, David Small,
  Daniel Levine, Susi Lehtola, Hugh Burton, Evgeny Epifanovsky
 -----------------------------------------------------------------------
 Hartree-Fock
 A restricted SCF calculation will be
 performed using DIIS
 SCF converges when DIIS error is below 1.0e-08
 ---------------------------------------
  Cycle       Energy         DIIS error
 ---------------------------------------
    1    -581.7445104550      1.42e-01  
    2    -440.3034823700      1.06e-01  
    3    -555.5627249097      9.56e-02  
    4    -658.0889888963      5.38e-02  
    5    -636.2863522537      7.69e-02  
    6    -687.2658852226      1.93e-02  
    7    -689.1767753253      6.87e-03  
    8    -689.6377416865      1.97e-03  
    9    -689.6740335989      5.51e-04  
   10    -689.6786122584      2.42e-04  
   11    -689.6803167928      1.20e-04  
   12    -689.6807896574      6.47e-05  
   13    -689.6809133925      2.22e-05  
   14    -689.6809378887      5.42e-06  
   15    -689.6809387689      2.23e-06  
   16    -689.6809388714      5.62e-07  
   17    -689.6809388768      8.83e-08  
   18    -689.6809388769      2.43e-08  
   19    -689.6809388769      4.85e-09  Convergence criterion met
 ---------------------------------------
 SCF time:   CPU 335.16s  wall 34.00s 
 SCF   energy in the final basis set =     -689.6809388769


 ------------------------------------------------------------------------------

   CCMAN2: suite of methods based on coupled cluster
           and equation of motion theories.

   Components:
   * libvmm-1.3-trunk
     by Evgeny Epifanovsky, Ilya Kaliman.
   * libtensor-2.5-trunk
     by Evgeny Epifanovsky, Michael Wormit, Dmitry Zuev, Sam Manzer, 
        Ilya Kaliman.
   * libcc-2.5-trunk
     by Evgeny Epifanovsky, Arik Landau, Tomasz Kus, Kirill Khistyaev, 
        Dmitry Zuev, Prashant Manohar, Xintian Feng, Anna Krylov, 
        Matthew Goldey, Alec White, Thomas Jagau, Kaushik Nanda, 
        Anastasia Gunina, Alexander Kunitsa, Joonho Lee.

   CCMAN original authors:
   Anna I. Krylov, C. David Sherrill, Steven R. Gwaltney,
   Edward F. C. Byrd (2000)
   Sergey V. Levchenko, Lyudmila V. Slipchenko, Tao Wang,
   Ana-Maria C. Cristian (2003)
   Piotr A. Pieniazek, C. Melania Oana, Evgeny Epifanovsky (2007)
   Prashant Manohar (2009)

 ------------------------------------------------------------------------------


 Calculation will run on 10 cores with 100000MB of RAM.

 
 Alpha MOs, Restricted
 -- Occupied --                  
-104.84  -11.31  -11.25  -11.25  -11.25  -11.25  -11.25  -10.57
  1 A1    2 A1    3 A1    1 B1    4 A1    2 B1    5 A1    6 A1                 
 -8.034  -8.031  -8.031  -1.196  -1.124  -1.036  -1.000  -0.850
  7 A1    3 B1    1 B2    8 A1    9 A1    4 B1   10 A1    5 B1                 
 -0.823  -0.715  -0.651  -0.651  -0.607  -0.593  -0.547  -0.520
 11 A1   12 A1    6 B1   13 A1    7 B1   14 A1    2 B2    8 B1                 
 -0.515  -0.471  -0.456  -0.354  -0.338
 15 A1    3 B2    9 B1    1 A2    4 B2                                         
 -- Virtual --                   
  0.014   0.020   0.021   0.032   0.032   0.033   0.043   0.044
 16 A1   10 B1   17 A1    5 B2   18 A1   11 B1    2 A2    6 B2                 
  0.045   0.048   0.054   0.055   0.056   0.063   0.063   0.065
 19 A1   20 A1   12 B1    3 A2    7 B2   21 A1    8 B2   13 B1                 
  0.068   0.069   0.070   0.073   0.074   0.078   0.091   0.096
 22 A1    9 B2   14 B1   23 A1   15 B1   24 A1   25 A1   16 B1                 
  0.100   0.102   0.104   0.106   0.126   0.163   0.169   0.172
 26 A1    4 A2   10 B2   17 B1   27 A1   11 B2   28 A1   18 B1                 
  0.176   0.180   0.181   0.192   0.211   0.213   0.214   0.222
 29 A1    5 A2   12 B2   30 A1   19 B1   31 A1   13 B2   32 A1                 
  0.222   0.229   0.232   0.235   0.238   0.243   0.244   0.247
 20 B1   14 B2    6 A2   21 B1   33 A1   15 B2   34 A1   22 B1                 
  0.252   0.264   0.280   0.291   0.295   0.303   0.314   0.330
 23 B1   35 A1   36 A1   24 B1   25 B1   37 A1   38 A1   26 B1                 
  0.357   0.366   0.378   0.414   0.418   0.432   0.441   0.491
 16 B2   39 A1   40 A1   41 A1   27 B1   42 A1   28 B1   43 A1                 
  0.500   0.509   0.509   0.620   0.631   0.643   0.652   0.662
 29 B1   44 A1   30 B1   45 A1   31 B1   32 B1   17 B2   46 A1                 
  0.720   0.730   0.742   0.743   0.745   0.772   0.782   0.794
 47 A1   33 B1   48 A1   18 B2   34 B1    7 A2   19 B2   35 B1                 
  0.821   0.822   0.823   0.881   0.884   0.898   0.934   0.936
 49 A1    8 A2   20 B2   50 A1   21 B2   51 A1   52 A1   36 B1                 
  0.955   0.973   1.018   1.024   1.039   1.060   1.067   1.082
 37 B1   53 A1   38 B1   54 A1   55 A1   39 B1   22 B2   56 A1                 
  1.095   1.100   1.133   1.139   1.173   1.192   1.221   1.225
 57 A1   40 B1   41 B1    9 A2   58 A1   42 B1   59 A1   23 B2                 
  1.235   1.273   1.309   1.352   1.376   1.443   1.467   1.475
 10 A2   60 A1   11 A2   24 B2   12 A2   61 A1   43 B1   62 A1                 
  1.581   1.663   1.728   1.776   1.787   1.824   1.831   1.844
 25 B2   63 A1   44 B1   64 A1   45 B1   26 B2   13 A2   65 A1                 
  1.892   1.908   1.909   1.963   1.999   2.008   2.042   2.103
 27 B2   66 A1   46 B1   67 A1   47 B1   28 B2   14 A2   48 B1                 
  2.168   2.218   2.220   2.221   2.236   2.243   2.287   2.323
 68 A1   49 B1   15 A2   29 B2   50 B1   69 A1   30 B2   70 A1                 
  2.352   2.368   2.392   2.579   2.611   2.647   2.684   2.748
 51 B1   16 A2   71 A1   31 B2   52 B1   17 A2   32 B2   72 A1                 
  2.777   2.798   2.810   2.867   2.914   2.935   2.981   2.997
 53 B1   73 A1   54 B1   55 B1   74 A1   75 A1   76 A1   77 A1                 
  3.009   3.026   3.038   3.043   3.066   3.191   3.194   3.205
 56 B1   78 A1   79 A1   57 B1   33 B2   34 B2   18 A2   58 B1                 
  3.210   3.283   3.288   3.321   3.473   3.567   3.631   3.757
 80 A1   35 B2   19 A2   59 B1   36 B2   60 B1   81 A1   61 B1                 
  3.782   3.902   3.919   4.022   4.189   4.384   4.442   4.510
 82 A1   62 B1   83 A1   84 A1   85 A1   63 B1   86 A1   87 A1                 
  4.516   5.123   5.263   5.442   5.447   5.754   5.779   6.187
 64 B1   88 A1   65 B1   89 A1   66 B1   90 A1   67 B1   91 A1                 
 10.544  20.635  20.695  20.708  20.824  20.852  21.124  26.795
 92 A1   93 A1   94 A1   68 B1   95 A1   69 B1   96 A1   37 B2                 
 27.056  27.522  80.200  80.266  80.282  80.380  80.405  80.613
 70 B1   97 A1   98 A1   99 A1   71 B1  100 A1   72 B1  101 A1                 
219.412 322.039 322.101 322.118 322.201 322.223 322.3901431.607
102 A1  103 A1  104 A1   73 B1  105 A1   74 B1  106 A1  107 A1                 
*******1431.6801431.7491431.7681431.9088749.8448749.8938749.909
108 A1   75 B1  109 A1   76 B1  110 A1  111 A1  112 A1   77 B1                 
*******8749.9818750.093
113 A1   78 B1  114 A1                                                         
 
 Beta MOs, Restricted
 -- Occupied --                  
-104.84  -11.31  -11.25  -11.25  -11.25  -11.25  -11.25  -10.57
  1 A1    2 A1    3 A1    1 B1    4 A1    2 B1    5 A1    6 A1                 
 -8.034  -8.031  -8.031  -1.196  -1.124  -1.036  -1.000  -0.850
  7 A1    3 B1    1 B2    8 A1    9 A1    4 B1   10 A1    5 B1                 
 -0.823  -0.715  -0.651  -0.651  -0.607  -0.593  -0.547  -0.520
 11 A1   12 A1    6 B1   13 A1    7 B1   14 A1    2 B2    8 B1                 
 -0.515  -0.471  -0.456  -0.354  -0.338
 15 A1    3 B2    9 B1    1 A2    4 B2                                         
 -- Virtual --                   
  0.014   0.020   0.021   0.032   0.032   0.033   0.043   0.044
 16 A1   10 B1   17 A1    5 B2   18 A1   11 B1    2 A2    6 B2                 
  0.045   0.048   0.054   0.055   0.056   0.063   0.063   0.065
 19 A1   20 A1   12 B1    3 A2    7 B2   21 A1    8 B2   13 B1                 
  0.068   0.069   0.070   0.073   0.074   0.078   0.091   0.096
 22 A1    9 B2   14 B1   23 A1   15 B1   24 A1   25 A1   16 B1                 
  0.100   0.102   0.104   0.106   0.126   0.163   0.169   0.172
 26 A1    4 A2   10 B2   17 B1   27 A1   11 B2   28 A1   18 B1                 
  0.176   0.180   0.181   0.192   0.211   0.213   0.214   0.222
 29 A1    5 A2   12 B2   30 A1   19 B1   31 A1   13 B2   32 A1                 
  0.222   0.229   0.232   0.235   0.238   0.243   0.244   0.247
 20 B1   14 B2    6 A2   21 B1   33 A1   15 B2   34 A1   22 B1                 
  0.252   0.264   0.280   0.291   0.295   0.303   0.314   0.330
 23 B1   35 A1   36 A1   24 B1   25 B1   37 A1   38 A1   26 B1                 
  0.357   0.366   0.378   0.414   0.418   0.432   0.441   0.491
 16 B2   39 A1   40 A1   41 A1   27 B1   42 A1   28 B1   43 A1                 
  0.500   0.509   0.509   0.620   0.631   0.643   0.652   0.662
 29 B1   44 A1   30 B1   45 A1   31 B1   32 B1   17 B2   46 A1                 
  0.720   0.730   0.742   0.743   0.745   0.772   0.782   0.794
 47 A1   33 B1   48 A1   18 B2   34 B1    7 A2   19 B2   35 B1                 
  0.821   0.822   0.823   0.881   0.884   0.898   0.934   0.936
 49 A1    8 A2   20 B2   50 A1   21 B2   51 A1   52 A1   36 B1                 
  0.955   0.973   1.018   1.024   1.039   1.060   1.067   1.082
 37 B1   53 A1   38 B1   54 A1   55 A1   39 B1   22 B2   56 A1                 
  1.095   1.100   1.133   1.139   1.173   1.192   1.221   1.225
 57 A1   40 B1   41 B1    9 A2   58 A1   42 B1   59 A1   23 B2                 
  1.235   1.273   1.309   1.352   1.376   1.443   1.467   1.475
 10 A2   60 A1   11 A2   24 B2   12 A2   61 A1   43 B1   62 A1                 
  1.581   1.663   1.728   1.776   1.787   1.824   1.831   1.844
 25 B2   63 A1   44 B1   64 A1   45 B1   26 B2   13 A2   65 A1                 
  1.892   1.908   1.909   1.963   1.999   2.008   2.042   2.103
 27 B2   66 A1   46 B1   67 A1   47 B1   28 B2   14 A2   48 B1                 
  2.168   2.218   2.220   2.221   2.236   2.243   2.287   2.323
 68 A1   49 B1   15 A2   29 B2   50 B1   69 A1   30 B2   70 A1                 
  2.352   2.368   2.392   2.579   2.611   2.647   2.684   2.748
 51 B1   16 A2   71 A1   31 B2   52 B1   17 A2   32 B2   72 A1                 
  2.777   2.798   2.810   2.867   2.914   2.935   2.981   2.997
 53 B1   73 A1   54 B1   55 B1   74 A1   75 A1   76 A1   77 A1                 
  3.009   3.026   3.038   3.043   3.066   3.191   3.194   3.205
 56 B1   78 A1   79 A1   57 B1   33 B2   34 B2   18 A2   58 B1                 
  3.210   3.283   3.288   3.321   3.473   3.567   3.631   3.757
 80 A1   35 B2   19 A2   59 B1   36 B2   60 B1   81 A1   61 B1                 
  3.782   3.902   3.919   4.022   4.189   4.384   4.442   4.510
 82 A1   62 B1   83 A1   84 A1   85 A1   63 B1   86 A1   87 A1                 
  4.516   5.123   5.263   5.442   5.447   5.754   5.779   6.187
 64 B1   88 A1   65 B1   89 A1   66 B1   90 A1   67 B1   91 A1                 
 10.544  20.635  20.695  20.708  20.824  20.852  21.124  26.795
 92 A1   93 A1   94 A1   68 B1   95 A1   69 B1   96 A1   37 B2                 
 27.056  27.522  80.200  80.266  80.282  80.380  80.405  80.613
 70 B1   97 A1   98 A1   99 A1   71 B1  100 A1   72 B1  101 A1                 
219.412 322.039 322.101 322.118 322.201 322.223 322.3901431.607
102 A1  103 A1  104 A1   73 B1  105 A1   74 B1  106 A1  107 A1                 
*******1431.6801431.7491431.7681431.9088749.8448749.8938749.909
108 A1   75 B1  109 A1   76 B1  110 A1  111 A1  112 A1   77 B1                 
*******8749.9818750.093
113 A1   78 B1  114 A1                                                         

 Occupation and symmetry of molecular orbitals

 Point group: C2v (4 irreducible representations).

                           A1   A2   B1   B2    All 
 ----------------------------------------------------
 All molecular orbitals:
  - Alpha                  114  19   78   37    248 
  - Beta                   114  19   78   37    248 
 ----------------------------------------------------
 Alpha orbitals:
  - Frozen occupied        5    0    2    0     7   
  - Active occupied        10   1    7    4     22  
  - Active virtual         99   18   69   33    219 
  - Frozen virtual         0    0    0    0     0   
 ----------------------------------------------------
 Beta orbitals:
  - Frozen occupied        5    0    2    0     7   
  - Active occupied        10   1    7    4     22  
  - Active virtual         99   18   69   33    219 
  - Frozen virtual         0    0    0    0     0   
 ----------------------------------------------------

 Import integrals:   CPU 0.00 s  wall 0.00 s

 Import integrals:   CPU 1761.49 s  wall 198.31 s

 MP2 amplitudes:   CPU 7.49 s  wall 5.82 s

           CCSD T amplitudes will be solved using DIIS.

           Start     Size      MaxIter   EConv     TConv     
           3         7         100       1.00e-06  1.00e-04  
 ------------------------------------------------------------------------------
           Energy (a.u.)   Ediff      Tdiff       Comment
 ------------------------------------------------------------------------------
          -690.68833981                           
     1    -690.68960024   1.26e-03   9.89e-01     
     2    -690.71961000   3.00e-02   1.34e-01     
     3    -690.71998529   3.75e-04   4.67e-02     
     4    -690.72281402   2.83e-03   1.40e-02     Switched to DIIS steps.
     5    -690.72381404   1.00e-03   1.16e-02     
     6    -690.72384212   2.81e-05   2.15e-03     
     7    -690.72382777   1.44e-05   1.03e-03     
     8    -690.72382668   1.09e-06   2.00e-04     
     9    -690.72382682   1.44e-07   7.54e-05     
 ------------------------------------------------------------------------------
          -690.72382682                           CCSD T converged.

 SCF energy                 = -689.68093888
 MP2 energy                 = -690.68833981
 CCSD correlation energy     =   -1.04288795
 CCSD total energy           = -690.72382682

 CCSD  T1^2 = 0.0080  T2^2 = 0.3949  Leading amplitudes:

 Amplitude    Orbitals with energies
 -0.0210       1 (A2) A                  ->    7 (A2) A                   
              -0.3535                          0.7719                     
 -0.0210       1 (A2) B                  ->    7 (A2) B                   
              -0.3535                          0.7719                     
 -0.0202       4 (B2) A                  ->    19 (B2) A                  
              -0.3380                          0.7819                     
 -0.0202       4 (B2) B                  ->    19 (B2) B                  
              -0.3380                          0.7819                     

 Amplitude    Orbitals with energies
 -0.0691       1 (A2) A      1 (A2) B    ->    4 (A2) A      4 (A2) B     
              -0.3535       -0.3535            0.1018        0.1018       
  0.0691       1 (A2) A      1 (A2) B    ->    4 (A2) B      4 (A2) A     
              -0.3535       -0.3535            0.1018        0.1018       
  0.0691       1 (A2) B      1 (A2) A    ->    4 (A2) A      4 (A2) B     
              -0.3535       -0.3535            0.1018        0.1018       
 -0.0691       1 (A2) B      1 (A2) A    ->    4 (A2) B      4 (A2) A     
              -0.3535       -0.3535            0.1018        0.1018       

 Computing CCSD intermediates for later calculations
 Finished.

           CCSD Lambda amplitudes will be solved using DIIS.
           Start     Size      MaxIter   EConv     LConv     
           3         7         100       1.00e-06  1.00e-04  
 ------------------------------------------------------------------------------
            Enorm      Ldiff       Comment
 ------------------------------------------------------------------------------
     1     5.70e-02   4.59e-02     
     2     1.03e-02   9.87e-04     
     3     3.48e-03   1.85e-03     
     4     1.43e-03   3.07e-04     Switched to DIIS steps.
     5     4.29e-04   3.22e-04     
     6     1.95e-04   6.81e-05     
     7     5.49e-05   2.30e-05     
     8     2.20e-05   4.18e-06     
     9     7.43e-06   6.54e-07     
    10     3.05e-06   8.88e-08     
    11     1.19e-06   1.01e-07     
    12     4.19e-07   8.76e-08     
 ------------------------------------------------------------------------------
                                   CCSD Lambda converged.

 CCSD calculation:   CPU 1995.16 s  wall 281.02 s

        Solving for EOMEE-CCSD A1 singlet states.

       EOMEE-CCSD-SINGLES right amplitudes will be solved using Davidson.
        Amplitudes will be solved using standard  algorithm.
     Hard-coded thresholds: 
     LinDepThresh=1.00e-15  NormThresh=1.00e-06  ReorthogonThresh=1.00e-02

      Roots     MaxVec    MaxIter   Precond   Conv      Shift    
      2         60        60        1         1.00e-05  0.00e+00  
 ------------------------------------------------------------------------------
      Iter ConvRoots NVecs ResNorm Current eigenvalues (eV)
 ------------------------------------------------------------------------------
      0    0      2     8.51e-04   9.6128   10.1232   
      1    0      4     2.36e-02   9.5463   10.0635   
      2    0      6     2.17e-03   9.3501   9.8740   
      3    0      8     6.17e-03   9.3106   9.7642   
      4    0      10    2.66e-02   9.2589   9.5739   
      5    0      12    3.70e-03   9.2178   9.4933   
      6    0      14    4.37e-04   9.2128   9.4848   
      7    0      16    3.29e-05   9.2119   9.4835   
      8    2      18    2.73e-06   9.2119*  9.4834*  

     Davidson procedure converged

 EOMEE transition 1/A1
 Total energy = -690.38529709 a.u.  Excitation energy = 9.2119 eV.
 R1^2 = 1.0000  Res^2 = 1.33e-06
 Conv-d = yes

 Amplitude    Transitions between orbitals
 -0.4224       4 (B2) A                  ->    5 (B2) A                   
 -0.4224       4 (B2) B                  ->    5 (B2) B                   
 -0.3745       4 (B2) A                  ->    10 (B2) A                  
 -0.3745       4 (B2) B                  ->    10 (B2) B                  
 -0.3059       1 (A2) A                  ->    4 (A2) A                   
 -0.3059       1 (A2) B                  ->    4 (A2) B                   
 -0.2079       4 (B2) A                  ->    6 (B2) A                   
 -0.2079       4 (B2) B                  ->    6 (B2) B                   

              Summary of significant orbitals:

               Number  Type             Irrep      Energy
               28      Occ  Alpha       1 (A2)     -0.3535
               29      Occ  Alpha       4 (B2)     -0.3380
               28      Occ  Beta        1 (A2)     -0.3535
               29      Occ  Beta        4 (B2)     -0.3380
               55      Vir  Alpha       4 (A2)      0.1018
               33      Vir  Alpha       5 (B2)      0.0317
               37      Vir  Alpha       6 (B2)      0.0436
               56      Vir  Alpha      10 (B2)      0.1035
               55      Vir  Beta        4 (A2)      0.1018
               33      Vir  Beta        5 (B2)      0.0317
               37      Vir  Beta        6 (B2)      0.0436
               56      Vir  Beta       10 (B2)      0.1035


 EOMEE transition 2/A1
 Total energy = -690.37531936 a.u.  Excitation energy = 9.4834 eV.
 R1^2 = 1.0000  Res^2 = 4.14e-06
 Conv-d = yes

 Amplitude    Transitions between orbitals
  0.5035       4 (B2) A                  ->    5 (B2) A                   
  0.5035       4 (B2) B                  ->    5 (B2) B                   
 -0.3082       4 (B2) A                  ->    10 (B2) A                  
 -0.3082       4 (B2) B                  ->    10 (B2) B                  
 -0.2700       1 (A2) A                  ->    4 (A2) A                   
 -0.2700       1 (A2) B                  ->    4 (A2) B                   
  0.1576       4 (B2) A                  ->    11 (B2) A                  
  0.1576       4 (B2) B                  ->    11 (B2) B                  
  0.1230       4 (B2) A                  ->    8 (B2) A                   
  0.1230       4 (B2) B                  ->    8 (B2) B                   
 -0.1111       4 (B2) A                  ->    6 (B2) A                   
 -0.1111       4 (B2) B                  ->    6 (B2) B                   

              Summary of significant orbitals:

               Number  Type             Irrep      Energy
               28      Occ  Alpha       1 (A2)     -0.3535
               29      Occ  Alpha       4 (B2)     -0.3380
               28      Occ  Beta        1 (A2)     -0.3535
               29      Occ  Beta        4 (B2)     -0.3380
               55      Vir  Alpha       4 (A2)      0.1018
               33      Vir  Alpha       5 (B2)      0.0317
               37      Vir  Alpha       6 (B2)      0.0436
               44      Vir  Alpha       8 (B2)      0.0632
               56      Vir  Alpha      10 (B2)      0.1035
               59      Vir  Alpha      11 (B2)      0.1629
               55      Vir  Beta        4 (A2)      0.1018
               33      Vir  Beta        5 (B2)      0.0317
               37      Vir  Beta        6 (B2)      0.0436
               44      Vir  Beta        8 (B2)      0.0632
               56      Vir  Beta       10 (B2)      0.1035
               59      Vir  Beta       11 (B2)      0.1629


        EOMEE-CCSD/MP2 right amplitudes will be solved using Davidson.
        Amplitudes will be solved using standard  algorithm.
     Hard-coded thresholds: 
     LinDepThresh=1.00e-15  NormThresh=1.00e-06  ReorthogonThresh=1.00e-02

      Roots     MaxVec    MaxIter   Precond   Conv      Shift    
      2         60        60        1         1.00e-05  0.00e+00  
 ------------------------------------------------------------------------------
      Iter ConvRoots NVecs ResNorm Current eigenvalues (eV)
 ------------------------------------------------------------------------------
      0    0      2     1.57e-01   9.2119   9.4834   
      1    0      4     1.07e+01   7.6987   8.4673   
      2    0      6     2.15e-01   6.5387   7.1338   
      3    0      8     4.22e-03   6.4419   7.0790   
      4    0      10    1.99e-02   6.4091   7.0678   
      5    0      12    1.38e-02   6.3968   7.0647   
      6    0      14    7.80e-04   6.3888   7.0630   
      7    0      16    2.13e-03   6.3837   7.0621   
      8    0      18    1.05e-03   6.3843   7.0618   
      9    0      20    1.22e-04   6.3825   7.0610   
      10   0      22    8.98e-04   6.3819   7.0607   
      11   0      24    1.88e-04   6.3818   7.0604   
      12   1      26    2.07e-05   6.3818*  7.0602   
      13   0      27    8.64e-05   6.3818   7.0601   
      14   1      29    1.32e-05   6.3818*  7.0601   
      15   2      30    3.83e-07   6.3818*  7.0601*  

     Davidson procedure converged

 EOMEE transition 1/A1
 Total energy = -690.48929882 a.u.  Excitation energy = 6.3818 eV.
 R0^2 = 0.0000  R1^2 = 0.9385  R2^2 = 0.0615  Res^2 = 1.17e-07
 Conv-d = yes

 Amplitude    Transitions between orbitals
  0.5405       4 (B2) A                  ->    10 (B2) A                  
  0.5405       4 (B2) B                  ->    10 (B2) B                  
  0.3083       1 (A2) A                  ->    4 (A2) A                   
  0.3083       1 (A2) B                  ->    4 (A2) B                   
  0.1605       4 (B2) A                  ->    6 (B2) A                   
  0.1605       4 (B2) B                  ->    6 (B2) B                   
  0.1317       4 (B2) A                  ->    5 (B2) A                   
  0.1317       4 (B2) B                  ->    5 (B2) B                   

              Summary of significant orbitals:

               Number  Type             Irrep      Energy
               28      Occ  Alpha       1 (A2)     -0.3535
               29      Occ  Alpha       4 (B2)     -0.3380
               28      Occ  Beta        1 (A2)     -0.3535
               29      Occ  Beta        4 (B2)     -0.3380
               55      Vir  Alpha       4 (A2)      0.1018
               33      Vir  Alpha       5 (B2)      0.0317
               37      Vir  Alpha       6 (B2)      0.0436
               56      Vir  Alpha      10 (B2)      0.1035
               55      Vir  Beta        4 (A2)      0.1018
               33      Vir  Beta        5 (B2)      0.0317
               37      Vir  Beta        6 (B2)      0.0436
               56      Vir  Beta       10 (B2)      0.1035


 EOMEE transition 2/A1
 Total energy = -690.46437253 a.u.  Excitation energy = 7.0601 eV.
 R0^2 = 0.0000  R1^2 = 0.9365  R2^2 = 0.0635  Res^2 = 6.49e-07
 Conv-d = yes

 Amplitude    Transitions between orbitals
 -0.6093       4 (B2) A                  ->    5 (B2) A                   
 -0.6093       4 (B2) B                  ->    5 (B2) B                   
 -0.2198       4 (B2) A                  ->    11 (B2) A                  
 -0.2198       4 (B2) B                  ->    11 (B2) B                  
 -0.1404       4 (B2) A                  ->    8 (B2) A                   
 -0.1404       4 (B2) B                  ->    8 (B2) B                   
  0.1337       4 (B2) A                  ->    10 (B2) A                  
  0.1337       4 (B2) B                  ->    10 (B2) B                  

              Summary of significant orbitals:

               Number  Type             Irrep      Energy
               29      Occ  Alpha       4 (B2)     -0.3380
               29      Occ  Beta        4 (B2)     -0.3380
               33      Vir  Alpha       5 (B2)      0.0317
               44      Vir  Alpha       8 (B2)      0.0632
               56      Vir  Alpha      10 (B2)      0.1035
               59      Vir  Alpha      11 (B2)      0.1629
               33      Vir  Beta        5 (B2)      0.0317
               44      Vir  Beta        8 (B2)      0.0632
               56      Vir  Beta       10 (B2)      0.1035
               59      Vir  Beta       11 (B2)      0.1629


      EOM-CCSD/MP2 left amplitudes will be solved using Davidson.
        Amplitudes will be solved using MOM  algorithm.
     Hard-coded thresholds: 
     LinDepThresh=1.00e-15  NormThresh=1.00e-06  ReorthogonThresh=1.00e-02

      Roots     MaxVec    MaxIter   Precond   Conv      Shift    
      2         60        60        1         1.00e-05  0.00e+00  
 ------------------------------------------------------------------------------
      Iter ConvRoots NVecs ResNorm Current eigenvalues (eV)
 ------------------------------------------------------------------------------
      0    0      2     4.46e-03   6.3818   7.0601   
      1    0      4     2.04e+00   6.3818   7.0601   
      2    0      6     1.82e-02   6.3818   7.0601   
      3    0      8     1.77e-04   6.3818   7.0601   
      4    0      10    2.67e-04   6.3818   7.0601   
      5    0      12    1.81e-05   6.3818   7.0601   
      6    1      14    8.07e-06   6.3818   7.0601*  
      7    0      15    1.31e-05   6.3818   7.0601   
      8    2      17    1.48e-06   6.3818*  7.0601*  

     Davidson procedure converged

        Solving for EOMEE-CCSD A2 singlet states.

       EOMEE-CCSD-SINGLES right amplitudes will be solved using Davidson.
        Amplitudes will be solved using standard  algorithm.
     Hard-coded thresholds: 
     LinDepThresh=1.00e-15  NormThresh=1.00e-06  ReorthogonThresh=1.00e-02

      Roots     MaxVec    MaxIter   Precond   Conv      Shift    
      2         60        60        1         1.00e-05  0.00e+00  
 ------------------------------------------------------------------------------
      Iter ConvRoots NVecs ResNorm Current eigenvalues (eV)
 ------------------------------------------------------------------------------
      0    0      2     7.00e-04   9.7128   9.7833   
      1    0      4     4.37e-01   9.4568   9.5271   
      2    0      6     5.77e-02   9.1695   9.3841   
      3    0      8     3.40e-02   9.1383   9.3717   
      4    0      10    7.27e-03   9.1298   9.3679   
      5    0      12    1.03e-03   9.1281   9.3669   
      6    0      14    1.18e-04   9.1277   9.3667   
      7    2      16    7.94e-06   9.1277*  9.3667*  

     Davidson procedure converged

 EOMEE transition 1/A2
 Total energy = -690.38838943 a.u.  Excitation energy = 9.1277 eV.
 R1^2 = 1.0000  Res^2 = 9.09e-06
 Conv-d = yes

 Amplitude    Transitions between orbitals
  0.5221       1 (A2) A                  ->    16 (A1) A                  
  0.5221       1 (A2) B                  ->    16 (A1) B                  
  0.2355       1 (A2) A                  ->    21 (A1) A                  
  0.2355       1 (A2) B                  ->    21 (A1) B                  
  0.2015       1 (A2) A                  ->    25 (A1) A                  
  0.2015       1 (A2) B                  ->    25 (A1) B                  
 -0.1941       1 (A2) A                  ->    19 (A1) A                  
 -0.1941       1 (A2) B                  ->    19 (A1) B                  
 -0.1422       1 (A2) A                  ->    23 (A1) A                  
 -0.1422       1 (A2) B                  ->    23 (A1) B                  
  0.1160       1 (A2) A                  ->    18 (A1) A                  
  0.1160       1 (A2) B                  ->    18 (A1) B                  
 -0.1039       1 (A2) A                  ->    20 (A1) A                  
 -0.1039       1 (A2) B                  ->    20 (A1) B                  

              Summary of significant orbitals:

               Number  Type             Irrep      Energy
               28      Occ  Alpha       1 (A2)     -0.3535
               28      Occ  Beta        1 (A2)     -0.3535
               30      Vir  Alpha      16 (A1)      0.0143
               34      Vir  Alpha      18 (A1)      0.0319
               38      Vir  Alpha      19 (A1)      0.0450
               39      Vir  Alpha      20 (A1)      0.0478
               43      Vir  Alpha      21 (A1)      0.0629
               49      Vir  Alpha      23 (A1)      0.0734
               52      Vir  Alpha      25 (A1)      0.0912
               30      Vir  Beta       16 (A1)      0.0143
               34      Vir  Beta       18 (A1)      0.0319
               38      Vir  Beta       19 (A1)      0.0450
               39      Vir  Beta       20 (A1)      0.0478
               43      Vir  Beta       21 (A1)      0.0629
               49      Vir  Beta       23 (A1)      0.0734
               52      Vir  Beta       25 (A1)      0.0912


 EOMEE transition 2/A2
 Total energy = -690.37960754 a.u.  Excitation energy = 9.3667 eV.
 R1^2 = 1.0000  Res^2 = 6.80e-06
 Conv-d = yes

 Amplitude    Transitions between orbitals
  0.5996       4 (B2) A                  ->    10 (B1) A                  
  0.5996       4 (B2) B                  ->    10 (B1) B                  
  0.2310       4 (B2) A                  ->    13 (B1) A                  
  0.2310       4 (B2) B                  ->    13 (B1) B                  
 -0.1666       4 (B2) A                  ->    16 (B1) A                  
 -0.1666       4 (B2) B                  ->    16 (B1) B                  
  0.1159       4 (B2) A                  ->    15 (B1) A                  
  0.1159       4 (B2) B                  ->    15 (B1) B                  
 -0.1053       4 (B2) A                  ->    11 (B1) A                  
 -0.1053       4 (B2) B                  ->    11 (B1) B                  

              Summary of significant orbitals:

               Number  Type             Irrep      Energy
               29      Occ  Alpha       4 (B2)     -0.3380
               29      Occ  Beta        4 (B2)     -0.3380
               31      Vir  Alpha      10 (B1)      0.0202
               35      Vir  Alpha      11 (B1)      0.0334
               45      Vir  Alpha      13 (B1)      0.0647
               50      Vir  Alpha      15 (B1)      0.0744
               53      Vir  Alpha      16 (B1)      0.0957
               31      Vir  Beta       10 (B1)      0.0202
               35      Vir  Beta       11 (B1)      0.0334
               45      Vir  Beta       13 (B1)      0.0647
               50      Vir  Beta       15 (B1)      0.0744
               53      Vir  Beta       16 (B1)      0.0957


        EOMEE-CCSD/MP2 right amplitudes will be solved using Davidson.
        Amplitudes will be solved using standard  algorithm.
     Hard-coded thresholds: 
     LinDepThresh=1.00e-15  NormThresh=1.00e-06  ReorthogonThresh=1.00e-02

      Roots     MaxVec    MaxIter   Precond   Conv      Shift    
      2         60        60        1         1.00e-05  0.00e+00  
 ------------------------------------------------------------------------------
      Iter ConvRoots NVecs ResNorm Current eigenvalues (eV)
 ------------------------------------------------------------------------------
      0    0      2     1.13e-01   9.1277   9.3667   
      1    0      4     5.40e+01   7.9259   8.4807   
      2    0      6     3.39e-01   6.8384   6.9794   
      3    0      8     3.96e-03   6.7702   6.9184   
      4    0      10    1.71e-02   6.7566   6.9027   
      5    0      12    9.90e-03   6.7504   6.8964   
      6    0      14    2.35e-04   6.7477   6.8943   
      7    0      16    9.81e-04   6.7464   6.8938   
      8    0      18    5.50e-04   6.7461   6.8937   
      9    0      20    4.98e-05   6.7455   6.8931   
      10   0      22    8.65e-05   6.7454   6.8932   
      11   0      24    3.61e-05   6.7454   6.8931   
      12   2      26    1.78e-06   6.7454*  6.8932*  

     Davidson procedure converged

 EOMEE transition 1/A2
 Total energy = -690.47593741 a.u.  Excitation energy = 6.7454 eV.
 R0^2 = 0.0000  R1^2 = 0.9342  R2^2 = 0.0658  Res^2 = 2.45e-06
 Conv-d = yes

 Amplitude    Transitions between orbitals
 -0.4876       1 (A2) A                  ->    16 (A1) A                  
 -0.4876       1 (A2) B                  ->    16 (A1) B                  
 -0.2358       1 (A2) A                  ->    21 (A1) A                  
 -0.2358       1 (A2) B                  ->    21 (A1) B                  
 -0.2271       1 (A2) A                  ->    25 (A1) A                  
 -0.2271       1 (A2) B                  ->    25 (A1) B                  
  0.1609       1 (A2) A                  ->    19 (A1) A                  
  0.1609       1 (A2) B                  ->    19 (A1) B                  
  0.1282       1 (A2) A                  ->    23 (A1) A                  
  0.1282       1 (A2) B                  ->    23 (A1) B                  
  0.1158       1 (A2) A                  ->    24 (A1) A                  
  0.1158       1 (A2) B                  ->    24 (A1) B                  
  0.1090       1 (A2) A                  ->    20 (A1) A                  
  0.1090       1 (A2) B                  ->    20 (A1) B                  
 -0.1059       1 (A2) A                  ->    18 (A1) A                  
 -0.1059       1 (A2) B                  ->    18 (A1) B                  
 -0.1031       1 (A2) A                  ->    31 (A1) A                  
 -0.1031       1 (A2) B                  ->    31 (A1) B                  

              Summary of significant orbitals:

               Number  Type             Irrep      Energy
               28      Occ  Alpha       1 (A2)     -0.3535
               28      Occ  Beta        1 (A2)     -0.3535
               30      Vir  Alpha      16 (A1)      0.0143
               34      Vir  Alpha      18 (A1)      0.0319
               38      Vir  Alpha      19 (A1)      0.0450
               39      Vir  Alpha      20 (A1)      0.0478
               43      Vir  Alpha      21 (A1)      0.0629
               49      Vir  Alpha      23 (A1)      0.0734
               51      Vir  Alpha      24 (A1)      0.0779
               52      Vir  Alpha      25 (A1)      0.0912
               67      Vir  Alpha      31 (A1)      0.2130
               30      Vir  Beta       16 (A1)      0.0143
               34      Vir  Beta       18 (A1)      0.0319
               38      Vir  Beta       19 (A1)      0.0450
               39      Vir  Beta       20 (A1)      0.0478
               43      Vir  Beta       21 (A1)      0.0629
               49      Vir  Beta       23 (A1)      0.0734
               51      Vir  Beta       24 (A1)      0.0779
               52      Vir  Beta       25 (A1)      0.0912
               67      Vir  Beta       31 (A1)      0.2130


 EOMEE transition 2/A2
 Total energy = -690.47050814 a.u.  Excitation energy = 6.8932 eV.
 R0^2 = 0.0000  R1^2 = 0.9331  R2^2 = 0.0669  Res^2 = 1.11e-06
 Conv-d = yes

 Amplitude    Transitions between orbitals
 -0.5492       4 (B2) A                  ->    10 (B1) A                  
 -0.5492       4 (B2) B                  ->    10 (B1) B                  
 -0.2406       4 (B2) A                  ->    13 (B1) A                  
 -0.2406       4 (B2) B                  ->    13 (B1) B                  
  0.2149       4 (B2) A                  ->    16 (B1) A                  
  0.2149       4 (B2) B                  ->    16 (B1) B                  
 -0.1413       4 (B2) A                  ->    15 (B1) A                  
 -0.1413       4 (B2) B                  ->    15 (B1) B                  
  0.1012       4 (B2) A                  ->    20 (B1) A                  
  0.1012       4 (B2) B                  ->    20 (B1) B                  

              Summary of significant orbitals:

               Number  Type             Irrep      Energy
               29      Occ  Alpha       4 (B2)     -0.3380
               29      Occ  Beta        4 (B2)     -0.3380
               31      Vir  Alpha      10 (B1)      0.0202
               45      Vir  Alpha      13 (B1)      0.0647
               50      Vir  Alpha      15 (B1)      0.0744
               53      Vir  Alpha      16 (B1)      0.0957
               70      Vir  Alpha      20 (B1)      0.2221
               31      Vir  Beta       10 (B1)      0.0202
               45      Vir  Beta       13 (B1)      0.0647
               50      Vir  Beta       15 (B1)      0.0744
               53      Vir  Beta       16 (B1)      0.0957
               70      Vir  Beta       20 (B1)      0.2221


      EOM-CCSD/MP2 left amplitudes will be solved using Davidson.
        Amplitudes will be solved using MOM  algorithm.
     Hard-coded thresholds: 
     LinDepThresh=1.00e-15  NormThresh=1.00e-06  ReorthogonThresh=1.00e-02

      Roots     MaxVec    MaxIter   Precond   Conv      Shift    
      2         60        60        1         1.00e-05  0.00e+00  
 ------------------------------------------------------------------------------
      Iter ConvRoots NVecs ResNorm Current eigenvalues (eV)
 ------------------------------------------------------------------------------
      0    0      2     3.36e-03   6.7454   6.8932   
      1    0      4     3.70e+00   6.7454   6.8931   
      2    0      6     1.26e-03   6.7454   6.8931   
      3    0      8     5.79e-04   6.7454   6.8931   
      4    2      10    3.62e-06   6.7454*  6.8931*  

     Davidson procedure converged

        Solving for EOMEE-CCSD B1 singlet states.

       EOMEE-CCSD-SINGLES right amplitudes will be solved using Davidson.
        Amplitudes will be solved using standard  algorithm.
     Hard-coded thresholds: 
     LinDepThresh=1.00e-15  NormThresh=1.00e-06  ReorthogonThresh=1.00e-02

      Roots     MaxVec    MaxIter   Precond   Conv      Shift    
      2         60        60        1         1.00e-05  0.00e+00  
 ------------------------------------------------------------------------------
      Iter ConvRoots NVecs ResNorm Current eigenvalues (eV)
 ------------------------------------------------------------------------------
      0    0      2     6.00e-04   10.0192   10.1366   
      1    0      4     1.72e-02   9.9001   10.0848   
      2    0      6     1.67e-03   9.7409   10.0185   
      3    0      8     7.74e-04   9.7154   10.0110   
      4    0      10    3.41e-04   9.6812   10.0027   
      5    0      12    6.31e-03   9.5575   9.8314   
      6    0      14    2.33e-02   9.3446   9.7442   
      7    0      16    4.61e-03   9.2829   9.7319   
      8    0      18    7.09e-04   9.2773   9.7307   
      9    0      20    7.73e-05   9.2767   9.7305   
      10   1      22    1.14e-05   9.2766   9.7304*  
      11   2      23    1.57e-06   9.2766*  9.7304*  

     Davidson procedure converged

 EOMEE transition 1/B1
 Total energy = -690.38291984 a.u.  Excitation energy = 9.2766 eV.
 R1^2 = 1.0000  Res^2 = 1.43e-06
 Conv-d = yes

 Amplitude    Transitions between orbitals
  0.5200       4 (B2) A                  ->    4 (A2) A                   
  0.5200       4 (B2) B                  ->    4 (A2) B                   
 -0.4010       1 (A2) A                  ->    10 (B2) A                  
 -0.4010       1 (A2) B                  ->    10 (B2) B                  
  0.1693       4 (B2) A                  ->    3 (A2) A                   
  0.1693       4 (B2) B                  ->    3 (A2) B                   
 -0.1079       1 (A2) A                  ->    6 (B2) A                   
 -0.1079       1 (A2) B                  ->    6 (B2) B                   

              Summary of significant orbitals:

               Number  Type             Irrep      Energy
               28      Occ  Alpha       1 (A2)     -0.3535
               29      Occ  Alpha       4 (B2)     -0.3380
               28      Occ  Beta        1 (A2)     -0.3535
               29      Occ  Beta        4 (B2)     -0.3380
               41      Vir  Alpha       3 (A2)      0.0554
               55      Vir  Alpha       4 (A2)      0.1018
               37      Vir  Alpha       6 (B2)      0.0436
               56      Vir  Alpha      10 (B2)      0.1035
               41      Vir  Beta        3 (A2)      0.0554
               55      Vir  Beta        4 (A2)      0.1018
               37      Vir  Beta        6 (B2)      0.0436
               56      Vir  Beta       10 (B2)      0.1035


 EOMEE transition 2/B1
 Total energy = -690.36623970 a.u.  Excitation energy = 9.7304 eV.
 R1^2 = 1.0000  Res^2 = 1.71e-06
 Conv-d = yes

 Amplitude    Transitions between orbitals
  0.6253       1 (A2) A                  ->    5 (B2) A                   
  0.6253       1 (A2) B                  ->    5 (B2) B                   
  0.1774       1 (A2) A                  ->    11 (B2) A                  
  0.1774       1 (A2) B                  ->    11 (B2) B                  
  0.1546       4 (B2) A                  ->    4 (A2) A                   
  0.1546       4 (B2) B                  ->    4 (A2) B                   
  0.1461       1 (A2) A                  ->    8 (B2) A                   
  0.1461       1 (A2) B                  ->    8 (B2) B                   
  0.1052       4 (B2) A                  ->    3 (A2) A                   
  0.1052       4 (B2) B                  ->    3 (A2) B                   

              Summary of significant orbitals:

               Number  Type             Irrep      Energy
               28      Occ  Alpha       1 (A2)     -0.3535
               29      Occ  Alpha       4 (B2)     -0.3380
               28      Occ  Beta        1 (A2)     -0.3535
               29      Occ  Beta        4 (B2)     -0.3380
               41      Vir  Alpha       3 (A2)      0.0554
               55      Vir  Alpha       4 (A2)      0.1018
               33      Vir  Alpha       5 (B2)      0.0317
               44      Vir  Alpha       8 (B2)      0.0632
               59      Vir  Alpha      11 (B2)      0.1629
               41      Vir  Beta        3 (A2)      0.0554
               55      Vir  Beta        4 (A2)      0.1018
               33      Vir  Beta        5 (B2)      0.0317
               44      Vir  Beta        8 (B2)      0.0632
               59      Vir  Beta       11 (B2)      0.1629


        EOMEE-CCSD/MP2 right amplitudes will be solved using Davidson.
        Amplitudes will be solved using standard  algorithm.
     Hard-coded thresholds: 
     LinDepThresh=1.00e-15  NormThresh=1.00e-06  ReorthogonThresh=1.00e-02

      Roots     MaxVec    MaxIter   Precond   Conv      Shift    
      2         60        60        1         1.00e-05  0.00e+00  
 ------------------------------------------------------------------------------
      Iter ConvRoots NVecs ResNorm Current eigenvalues (eV)
 ------------------------------------------------------------------------------
      0    0      2     1.74e-01   9.2766   9.7304   
      1    0      4     1.33e+01   6.9559   8.1917   
      2    0      6     2.74e-01   5.3093   7.4554   
      3    0      8     1.83e-02   5.1235   7.3780   
      4    0      10    1.34e-01   5.1027   7.3404   
      5    0      12    1.26e-01   5.0978   7.2694   
      6    0      14    3.89e-02   5.0966   7.1833   
      7    0      16    5.24e-02   5.0968   7.1581   
      8    1      18    1.31e-02   5.0968*  7.1468   
      9    1      19    6.14e-04   5.0968*  7.1421   
      10   1      20    1.90e-03   5.0968*  7.1409   
      11   1      21    4.29e-04   5.0968*  7.1406   
      12   1      22    3.36e-05   5.0968*  7.1403   
      13   1      23    1.12e-04   5.0968*  7.1402   
      14   1      24    1.29e-05   5.0968*  7.1401   
      15   2      25    4.30e-06   5.0968*  7.1401*  

     Davidson procedure converged

 EOMEE transition 1/B1
 Total energy = -690.53652346 a.u.  Excitation energy = 5.0968 eV.
 R0^2 = 0.0000  R1^2 = 0.8976  R2^2 = 0.1024  Res^2 = 1.30e-06
 Conv-d = yes

 Amplitude    Transitions between orbitals
 -0.4845       4 (B2) A                  ->    4 (A2) A                   
 -0.4845       4 (B2) B                  ->    4 (A2) B                   
  0.3951       1 (A2) A                  ->    10 (B2) A                  
  0.3951       1 (A2) B                  ->    10 (B2) B                  
  0.1379       4 (B2) A                  ->    6 (A2) A                   
  0.1379       4 (B2) B                  ->    6 (A2) B                   

              Summary of significant orbitals:

               Number  Type             Irrep      Energy
               28      Occ  Alpha       1 (A2)     -0.3535
               29      Occ  Alpha       4 (B2)     -0.3380
               28      Occ  Beta        1 (A2)     -0.3535
               29      Occ  Beta        4 (B2)     -0.3380
               55      Vir  Alpha       4 (A2)      0.1018
               72      Vir  Alpha       6 (A2)      0.2316
               56      Vir  Alpha      10 (B2)      0.1035
               55      Vir  Beta        4 (A2)      0.1018
               72      Vir  Beta        6 (A2)      0.2316
               56      Vir  Beta       10 (B2)      0.1035


 EOMEE transition 2/B1
 Total energy = -690.46143272 a.u.  Excitation energy = 7.1401 eV.
 R0^2 = 0.0000  R1^2 = 0.9282  R2^2 = 0.0718  Res^2 = 7.29e-06
 Conv-d = yes

 Amplitude    Transitions between orbitals
  0.4028       1 (A2) A                  ->    10 (B2) A                  
  0.4028       1 (A2) B                  ->    10 (B2) B                  
  0.3495       4 (B2) A                  ->    4 (A2) A                   
  0.3495       4 (B2) B                  ->    4 (A2) B                   
  0.3060       1 (A2) A                  ->    5 (B2) A                   
  0.3060       1 (A2) B                  ->    5 (B2) B                   
  0.1395       4 (B2) A                  ->    3 (A2) A                   
  0.1395       4 (B2) B                  ->    3 (A2) B                   
  0.1226       1 (A2) A                  ->    6 (B2) A                   
  0.1226       1 (A2) B                  ->    6 (B2) B                   

              Summary of significant orbitals:

               Number  Type             Irrep      Energy
               28      Occ  Alpha       1 (A2)     -0.3535
               29      Occ  Alpha       4 (B2)     -0.3380
               28      Occ  Beta        1 (A2)     -0.3535
               29      Occ  Beta        4 (B2)     -0.3380
               41      Vir  Alpha       3 (A2)      0.0554
               55      Vir  Alpha       4 (A2)      0.1018
               33      Vir  Alpha       5 (B2)      0.0317
               37      Vir  Alpha       6 (B2)      0.0436
               56      Vir  Alpha      10 (B2)      0.1035
               41      Vir  Beta        3 (A2)      0.0554
               55      Vir  Beta        4 (A2)      0.1018
               33      Vir  Beta        5 (B2)      0.0317
               37      Vir  Beta        6 (B2)      0.0436
               56      Vir  Beta       10 (B2)      0.1035


      EOM-CCSD/MP2 left amplitudes will be solved using Davidson.
        Amplitudes will be solved using MOM  algorithm.
     Hard-coded thresholds: 
     LinDepThresh=1.00e-15  NormThresh=1.00e-06  ReorthogonThresh=1.00e-02

      Roots     MaxVec    MaxIter   Precond   Conv      Shift    
      2         60        60        1         1.00e-05  0.00e+00  
 ------------------------------------------------------------------------------
      Iter ConvRoots NVecs ResNorm Current eigenvalues (eV)
 ------------------------------------------------------------------------------
      0    0      2     6.29e-03   5.0968   7.1401   
      1    0      4     4.81e+00   5.0968   7.1401   
      2    0      6     2.81e-02   5.0968   7.1401   
      3    0      8     5.77e-04   5.0968   7.1401   
      4    0      10    6.57e-05   5.0967   7.1401   
      5    1      12    1.02e-05   5.0967*  7.1401   
      6    2      13    1.69e-06   5.0967*  7.1401*  

     Davidson procedure converged

        Solving for EOMEE-CCSD B2 singlet states.

       EOMEE-CCSD-SINGLES right amplitudes will be solved using Davidson.
        Amplitudes will be solved using standard  algorithm.
     Hard-coded thresholds: 
     LinDepThresh=1.00e-15  NormThresh=1.00e-06  ReorthogonThresh=1.00e-02

      Roots     MaxVec    MaxIter   Precond   Conv      Shift    
      2         60        60        1         1.00e-05  0.00e+00  
 ------------------------------------------------------------------------------
      Iter ConvRoots NVecs ResNorm Current eigenvalues (eV)
 ------------------------------------------------------------------------------
      0    0      2     8.01e-04   9.3726   9.7748   
      1    0      4     4.07e-01   9.0975   9.5601   
      2    0      6     5.33e-02   8.8193   9.2803   
      3    0      8     2.34e-02   8.7823   9.2377   
      4    0      10    6.60e-03   8.7722   9.2299   
      5    0      12    8.26e-04   8.7706   9.2272   
      6    0      14    1.71e-04   8.7703   9.2259   
      7    0      16    3.98e-05   8.7703   9.2256   
      8    1      18    1.83e-05   8.7703*  9.2256   
      9    2      19    4.63e-06   8.7703*  9.2255*  

     Davidson procedure converged

 EOMEE transition 1/B2
 Total energy = -690.40152440 a.u.  Excitation energy = 8.7703 eV.
 R1^2 = 1.0000  Res^2 = 3.06e-06
 Conv-d = yes

 Amplitude    Transitions between orbitals
  0.5263       4 (B2) A                  ->    16 (A1) A                  
  0.5263       4 (B2) B                  ->    16 (A1) B                  
  0.2196       4 (B2) A                  ->    21 (A1) A                  
  0.2196       4 (B2) B                  ->    21 (A1) B                  
 -0.2105       4 (B2) A                  ->    23 (A1) A                  
 -0.2105       4 (B2) B                  ->    23 (A1) B                  
 -0.1908       4 (B2) A                  ->    19 (A1) A                  
 -0.1908       4 (B2) B                  ->    19 (A1) B                  
  0.1460       4 (B2) A                  ->    25 (A1) A                  
  0.1460       4 (B2) B                  ->    25 (A1) B                  
 -0.1129       4 (B2) A                  ->    20 (A1) A                  
 -0.1129       4 (B2) B                  ->    20 (A1) B                  
 -0.1121       4 (B2) A                  ->    17 (A1) A                  
 -0.1121       4 (B2) B                  ->    17 (A1) B                  

              Summary of significant orbitals:

               Number  Type             Irrep      Energy
               29      Occ  Alpha       4 (B2)     -0.3380
               29      Occ  Beta        4 (B2)     -0.3380
               30      Vir  Alpha      16 (A1)      0.0143
               32      Vir  Alpha      17 (A1)      0.0212
               38      Vir  Alpha      19 (A1)      0.0450
               39      Vir  Alpha      20 (A1)      0.0478
               43      Vir  Alpha      21 (A1)      0.0629
               49      Vir  Alpha      23 (A1)      0.0734
               52      Vir  Alpha      25 (A1)      0.0912
               30      Vir  Beta       16 (A1)      0.0143
               32      Vir  Beta       17 (A1)      0.0212
               38      Vir  Beta       19 (A1)      0.0450
               39      Vir  Beta       20 (A1)      0.0478
               43      Vir  Beta       21 (A1)      0.0629
               49      Vir  Beta       23 (A1)      0.0734
               52      Vir  Beta       25 (A1)      0.0912


 EOMEE transition 2/B2
 Total energy = -690.38479453 a.u.  Excitation energy = 9.2255 eV.
 R1^2 = 1.0000  Res^2 = 6.20e-06
 Conv-d = yes

 Amplitude    Transitions between orbitals
 -0.5190       4 (B2) A                  ->    17 (A1) A                  
 -0.5190       4 (B2) B                  ->    17 (A1) B                  
 -0.2890       4 (B2) A                  ->    23 (A1) A                  
 -0.2890       4 (B2) B                  ->    23 (A1) B                  
 -0.1583       4 (B2) A                  ->    16 (A1) A                  
 -0.1583       4 (B2) B                  ->    16 (A1) B                  
  0.1343       4 (B2) A                  ->    22 (A1) A                  
  0.1343       4 (B2) B                  ->    22 (A1) B                  
  0.1094       4 (B2) A                  ->    29 (A1) A                  
  0.1094       4 (B2) B                  ->    29 (A1) B                  
 -0.1066       4 (B2) A                  ->    25 (A1) A                  
 -0.1066       4 (B2) B                  ->    25 (A1) B                  
 -0.1006       1 (A2) A                  ->    10 (B1) A                  
 -0.1006       1 (A2) B                  ->    10 (B1) B                  
 -0.1004       4 (B2) A                  ->    21 (A1) A                  
 -0.1004       4 (B2) B                  ->    21 (A1) B                  

              Summary of significant orbitals:

               Number  Type             Irrep      Energy
               28      Occ  Alpha       1 (A2)     -0.3535
               29      Occ  Alpha       4 (B2)     -0.3380
               28      Occ  Beta        1 (A2)     -0.3535
               29      Occ  Beta        4 (B2)     -0.3380
               30      Vir  Alpha      16 (A1)      0.0143
               32      Vir  Alpha      17 (A1)      0.0212
               43      Vir  Alpha      21 (A1)      0.0629
               46      Vir  Alpha      22 (A1)      0.0682
               49      Vir  Alpha      23 (A1)      0.0734
               52      Vir  Alpha      25 (A1)      0.0912
               62      Vir  Alpha      29 (A1)      0.1761
               31      Vir  Alpha      10 (B1)      0.0202
               30      Vir  Beta       16 (A1)      0.0143
               32      Vir  Beta       17 (A1)      0.0212
               43      Vir  Beta       21 (A1)      0.0629
               46      Vir  Beta       22 (A1)      0.0682
               49      Vir  Beta       23 (A1)      0.0734
               52      Vir  Beta       25 (A1)      0.0912
               62      Vir  Beta       29 (A1)      0.1761
               31      Vir  Beta       10 (B1)      0.0202


        EOMEE-CCSD/MP2 right amplitudes will be solved using Davidson.
        Amplitudes will be solved using standard  algorithm.
     Hard-coded thresholds: 
     LinDepThresh=1.00e-15  NormThresh=1.00e-06  ReorthogonThresh=1.00e-02

      Roots     MaxVec    MaxIter   Precond   Conv      Shift    
      2         60        60        1         1.00e-05  0.00e+00  
 ------------------------------------------------------------------------------
      Iter ConvRoots NVecs ResNorm Current eigenvalues (eV)
 ------------------------------------------------------------------------------
      0    0      2     1.23e-01   8.7703   9.2255   
      1    0      4     1.67e+01   7.7862   8.5420   
      2    0      6     9.50e-02   6.3858   6.8959   
      3    0      8     1.74e-03   6.3190   6.8338   
      4    0      10    1.25e-02   6.3009   6.8136   
      5    0      12    1.15e-02   6.2924   6.8017   
      6    0      14    1.05e-03   6.2876   6.7910   
      7    0      16    5.34e-03   6.2849   6.7802   
      8    0      18    7.57e-03   6.2834   6.7696   
      9    0      20    1.46e-04   6.2823   6.7626   
      10   0      22    1.19e-03   6.2823   6.7606   
      11   0      24    5.30e-04   6.2822   6.7598   
      12   1      26    1.53e-05   6.2822*  6.7593   
      13   1      27    1.16e-04   6.2822*  6.7590   
      14   1      28    7.61e-05   6.2822*  6.7589   
      15   2      29    4.78e-06   6.2822*  6.7589*  

     Davidson procedure converged

 EOMEE transition 1/B2
 Total energy = -690.49296036 a.u.  Excitation energy = 6.2822 eV.
 R0^2 = 0.0000  R1^2 = 0.9337  R2^2 = 0.0663  Res^2 = 4.81e-07
 Conv-d = yes

 Amplitude    Transitions between orbitals
  0.4818       4 (B2) A                  ->    16 (A1) A                  
  0.4818       4 (B2) B                  ->    16 (A1) B                  
  0.2153       4 (B2) A                  ->    21 (A1) A                  
  0.2153       4 (B2) B                  ->    21 (A1) B                  
  0.2047       4 (B2) A                  ->    25 (A1) A                  
  0.2047       4 (B2) B                  ->    25 (A1) B                  
 -0.1751       4 (B2) A                  ->    23 (A1) A                  
 -0.1751       4 (B2) B                  ->    23 (A1) B                  
 -0.1601       4 (B2) A                  ->    19 (A1) A                  
 -0.1601       4 (B2) B                  ->    19 (A1) B                  
 -0.1225       4 (B2) A                  ->    20 (A1) A                  
 -0.1225       4 (B2) B                  ->    20 (A1) B                  
 -0.1176       4 (B2) A                  ->    24 (A1) A                  
 -0.1176       4 (B2) B                  ->    24 (A1) B                  
 -0.1060       4 (B2) A                  ->    32 (A1) A                  
 -0.1060       4 (B2) B                  ->    32 (A1) B                  

              Summary of significant orbitals:

               Number  Type             Irrep      Energy
               29      Occ  Alpha       4 (B2)     -0.3380
               29      Occ  Beta        4 (B2)     -0.3380
               30      Vir  Alpha      16 (A1)      0.0143
               38      Vir  Alpha      19 (A1)      0.0450
               39      Vir  Alpha      20 (A1)      0.0478
               43      Vir  Alpha      21 (A1)      0.0629
               49      Vir  Alpha      23 (A1)      0.0734
               51      Vir  Alpha      24 (A1)      0.0779
               52      Vir  Alpha      25 (A1)      0.0912
               69      Vir  Alpha      32 (A1)      0.2216
               30      Vir  Beta       16 (A1)      0.0143
               38      Vir  Beta       19 (A1)      0.0450
               39      Vir  Beta       20 (A1)      0.0478
               43      Vir  Beta       21 (A1)      0.0629
               49      Vir  Beta       23 (A1)      0.0734
               51      Vir  Beta       24 (A1)      0.0779
               52      Vir  Beta       25 (A1)      0.0912
               69      Vir  Beta       32 (A1)      0.2216


 EOMEE transition 2/B2
 Total energy = -690.47544223 a.u.  Excitation energy = 6.7589 eV.
 R0^2 = 0.0000  R1^2 = 0.9338  R2^2 = 0.0662  Res^2 = 9.08e-06
 Conv-d = yes

 Amplitude    Transitions between orbitals
  0.4335       4 (B2) A                  ->    17 (A1) A                  
  0.4335       4 (B2) B                  ->    17 (A1) B                  
  0.3093       4 (B2) A                  ->    23 (A1) A                  
  0.3093       4 (B2) B                  ->    23 (A1) B                  
 -0.2317       4 (B2) A                  ->    29 (A1) A                  
 -0.2317       4 (B2) B                  ->    29 (A1) B                  
  0.1656       4 (B2) A                  ->    25 (A1) A                  
  0.1656       4 (B2) B                  ->    25 (A1) B                  
 -0.1321       4 (B2) A                  ->    22 (A1) A                  
 -0.1321       4 (B2) B                  ->    22 (A1) B                  

              Summary of significant orbitals:

               Number  Type             Irrep      Energy
               29      Occ  Alpha       4 (B2)     -0.3380
               29      Occ  Beta        4 (B2)     -0.3380
               32      Vir  Alpha      17 (A1)      0.0212
               46      Vir  Alpha      22 (A1)      0.0682
               49      Vir  Alpha      23 (A1)      0.0734
               52      Vir  Alpha      25 (A1)      0.0912
               62      Vir  Alpha      29 (A1)      0.1761
               32      Vir  Beta       17 (A1)      0.0212
               46      Vir  Beta       22 (A1)      0.0682
               49      Vir  Beta       23 (A1)      0.0734
               52      Vir  Beta       25 (A1)      0.0912
               62      Vir  Beta       29 (A1)      0.1761


      EOM-CCSD/MP2 left amplitudes will be solved using Davidson.
        Amplitudes will be solved using MOM  algorithm.
     Hard-coded thresholds: 
     LinDepThresh=1.00e-15  NormThresh=1.00e-06  ReorthogonThresh=1.00e-02

      Roots     MaxVec    MaxIter   Precond   Conv      Shift    
      2         60        60        1         1.00e-05  0.00e+00  
 ------------------------------------------------------------------------------
      Iter ConvRoots NVecs ResNorm Current eigenvalues (eV)
 ------------------------------------------------------------------------------
      0    0      2     3.66e-03   6.2822   6.7589   
      1    0      4     2.63e+00   6.2822   6.7589   
      2    0      6     8.22e-03   6.2822   6.7589   
      3    0      8     4.32e-04   6.2822   6.7588   
      4    1      10    6.18e-05   6.2822   6.7588*  
      5    2      11    2.13e-06   6.2822*  6.7588*  

     Davidson procedure converged

 EOMEE-CCSD calculation:   CPU 11171.46 s  wall 1536.38 s


 Start computing the transition properties

 ------------------------------------------------------------------------------
 State A: ccsd: 0/A1
 State B: eomee_ccsd/rhfref/singlets: 1/A1
 Transition dipole moment (a.u.):
   A->B: 0.714370 (X 0.000000, Y 0.000000, Z -0.714370)
   B->A: 0.751600 (X 0.000000, Y 0.000000, Z -0.751600)
 Oscillator strength (a.u.): 0.083949
 Norm of one-particle transition density matrix:
   A->B: 0.908277;   B->A: 0.964308
   ||gamma^AB||*||gamma^BA||: 0.875859

 ------------------------------------------------------------------------------
 State A: ccsd: 0/A1
 State B: eomee_ccsd/rhfref/singlets: 2/A1
 Transition dipole moment (a.u.):
   A->B: 0.431604 (X 0.000000, Y 0.000000, Z -0.431604)
   B->A: 0.438007 (X 0.000000, Y 0.000000, Z -0.438007)
 Oscillator strength (a.u.): 0.032699
 Norm of one-particle transition density matrix:
   A->B: 0.928001;   B->A: 0.958724
   ||gamma^AB||*||gamma^BA||: 0.889698

 ------------------------------------------------------------------------------
 State A: ccsd: 0/A1
 State B: eomee_ccsd/rhfref/singlets: 1/A2
 Transition dipole moment (a.u.):
   A->B: 0.000000 (X 0.000000, Y 0.000000, Z 0.000000)
   B->A: 0.000000 (X 0.000000, Y 0.000000, Z 0.000000)
 Oscillator strength (a.u.): 0.000000
 Norm of one-particle transition density matrix:
   A->B: 0.924453;   B->A: 0.957314
   ||gamma^AB||*||gamma^BA||: 0.884992

 ------------------------------------------------------------------------------
 State A: ccsd: 0/A1
 State B: eomee_ccsd/rhfref/singlets: 2/A2
 Transition dipole moment (a.u.):
   A->B: 0.000000 (X 0.000000, Y 0.000000, Z 0.000000)
   B->A: 0.000000 (X 0.000000, Y 0.000000, Z 0.000000)
 Oscillator strength (a.u.): 0.000000
 Norm of one-particle transition density matrix:
   A->B: 0.926484;   B->A: 0.956467
   ||gamma^AB||*||gamma^BA||: 0.886151

 ------------------------------------------------------------------------------
 State A: ccsd: 0/A1
 State B: eomee_ccsd/rhfref/singlets: 1/B1
 Transition dipole moment (a.u.):
   A->B: 0.097287 (X 0.097287, Y 0.000000, Z 0.000000)
   B->A: 0.094937 (X 0.094937, Y 0.000000, Z 0.000000)
 Oscillator strength (a.u.): 0.001153
 Norm of one-particle transition density matrix:
   A->B: 0.885736;   B->A: 0.936380
   ||gamma^AB||*||gamma^BA||: 0.829386

 ------------------------------------------------------------------------------
 State A: ccsd: 0/A1
 State B: eomee_ccsd/rhfref/singlets: 2/B1
 Transition dipole moment (a.u.):
   A->B: 1.508079 (X -1.508079, Y 0.000000, Z 0.000000)
   B->A: 1.601871 (X -1.601871, Y 0.000000, Z 0.000000)
 Oscillator strength (a.u.): 0.422585
 Norm of one-particle transition density matrix:
   A->B: 0.918709;   B->A: 0.957176
   ||gamma^AB||*||gamma^BA||: 0.879366

 ------------------------------------------------------------------------------
 State A: ccsd: 0/A1
 State B: eomee_ccsd/rhfref/singlets: 1/B2
 Transition dipole moment (a.u.):
   A->B: 0.205142 (X 0.000000, Y -0.205142, Z 0.000000)
   B->A: 0.211305 (X 0.000000, Y -0.211305, Z 0.000000)
 Oscillator strength (a.u.): 0.006672
 Norm of one-particle transition density matrix:
   A->B: 0.925828;   B->A: 0.956924
   ||gamma^AB||*||gamma^BA||: 0.885947

 ------------------------------------------------------------------------------
 State A: ccsd: 0/A1
 State B: eomee_ccsd/rhfref/singlets: 2/B2
 Transition dipole moment (a.u.):
   A->B: 0.025899 (X 0.000000, Y 0.025899, Z 0.000000)
   B->A: 0.024183 (X 0.000000, Y 0.024183, Z 0.000000)
 Oscillator strength (a.u.): 0.000104
 Norm of one-particle transition density matrix:
   A->B: 0.927362;   B->A: 0.958348
   ||gamma^AB||*||gamma^BA||: 0.888736


 All requested transition properties have been computed

 Transition Properties:   CPU 202.97 s  wall 34.21 s

 Total ccman2 time:   CPU 15230.34 s  wall 2071.75 s

 
 --------------------------------------------------------------
             Orbital Energies (a.u.) and Symmetries
 --------------------------------------------------------------
 
 Alpha MOs, Restricted
 -- Occupied --                  
-104.84  -11.31  -11.25  -11.25  -11.25  -11.25  -11.25  -10.57
  1 A1    2 A1    3 A1    1 B1    4 A1    2 B1    5 A1    6 A1                 
 -8.034  -8.031  -8.031  -1.196  -1.124  -1.036  -1.000  -0.850
  7 A1    3 B1    1 B2    8 A1    9 A1    4 B1   10 A1    5 B1                 
 -0.823  -0.715  -0.651  -0.651  -0.607  -0.593  -0.547  -0.520
 11 A1   12 A1    6 B1   13 A1    7 B1   14 A1    2 B2    8 B1                 
 -0.515  -0.471  -0.456  -0.354  -0.338
 15 A1    3 B2    9 B1    1 A2    4 B2                                         
 -- Virtual --                   
  0.014   0.020   0.021   0.032   0.032   0.033   0.043   0.044
 16 A1   10 B1   17 A1    5 B2   18 A1   11 B1    2 A2    6 B2                 
  0.045   0.048   0.054   0.055   0.056   0.063   0.063   0.065
 19 A1   20 A1   12 B1    3 A2    7 B2   21 A1    8 B2   13 B1                 
  0.068   0.069   0.070   0.073   0.074   0.078   0.091   0.096
 22 A1    9 B2   14 B1   23 A1   15 B1   24 A1   25 A1   16 B1                 
  0.100   0.102   0.104   0.106   0.126   0.163   0.169   0.172
 26 A1    4 A2   10 B2   17 B1   27 A1   11 B2   28 A1   18 B1                 
  0.176   0.180   0.181   0.192   0.211   0.213   0.214   0.222
 29 A1    5 A2   12 B2   30 A1   19 B1   31 A1   13 B2   32 A1                 
  0.222   0.229   0.232   0.235   0.238   0.243   0.244   0.247
 20 B1   14 B2    6 A2   21 B1   33 A1   15 B2   34 A1   22 B1                 
  0.252   0.264   0.280   0.291   0.295   0.303   0.314   0.330
 23 B1   35 A1   36 A1   24 B1   25 B1   37 A1   38 A1   26 B1                 
  0.357   0.366   0.378   0.414   0.418   0.432   0.441   0.491
 16 B2   39 A1   40 A1   41 A1   27 B1   42 A1   28 B1   43 A1                 
  0.500   0.509   0.509   0.620   0.631   0.643   0.652   0.662
 29 B1   44 A1   30 B1   45 A1   31 B1   32 B1   17 B2   46 A1                 
  0.720   0.730   0.742   0.743   0.745   0.772   0.782   0.794
 47 A1   33 B1   48 A1   18 B2   34 B1    7 A2   19 B2   35 B1                 
  0.821   0.822   0.823   0.881   0.884   0.898   0.934   0.936
 49 A1    8 A2   20 B2   50 A1   21 B2   51 A1   52 A1   36 B1                 
  0.955   0.973   1.018   1.024   1.039   1.060   1.067   1.082
 37 B1   53 A1   38 B1   54 A1   55 A1   39 B1   22 B2   56 A1                 
  1.095   1.100   1.133   1.139   1.173   1.192   1.221   1.225
 57 A1   40 B1   41 B1    9 A2   58 A1   42 B1   59 A1   23 B2                 
  1.235   1.273   1.309   1.352   1.376   1.443   1.467   1.475
 10 A2   60 A1   11 A2   24 B2   12 A2   61 A1   43 B1   62 A1                 
  1.581   1.663   1.728   1.776   1.787   1.824   1.831   1.844
 25 B2   63 A1   44 B1   64 A1   45 B1   26 B2   13 A2   65 A1                 
  1.892   1.908   1.909   1.963   1.999   2.008   2.042   2.103
 27 B2   66 A1   46 B1   67 A1   47 B1   28 B2   14 A2   48 B1                 
  2.168   2.218   2.220   2.221   2.236   2.243   2.287   2.323
 68 A1   49 B1   15 A2   29 B2   50 B1   69 A1   30 B2   70 A1                 
  2.352   2.368   2.392   2.579   2.611   2.647   2.684   2.748
 51 B1   16 A2   71 A1   31 B2   52 B1   17 A2   32 B2   72 A1                 
  2.777   2.798   2.810   2.867   2.914   2.935   2.981   2.997
 53 B1   73 A1   54 B1   55 B1   74 A1   75 A1   76 A1   77 A1                 
  3.009   3.026   3.038   3.043   3.066   3.191   3.194   3.205
 56 B1   78 A1   79 A1   57 B1   33 B2   34 B2   18 A2   58 B1                 
  3.210   3.283   3.288   3.321   3.473   3.567   3.631   3.757
 80 A1   35 B2   19 A2   59 B1   36 B2   60 B1   81 A1   61 B1                 
  3.782   3.902   3.919   4.022   4.189   4.384   4.442   4.510
 82 A1   62 B1   83 A1   84 A1   85 A1   63 B1   86 A1   87 A1                 
  4.516   5.123   5.263   5.442   5.447   5.754   5.779   6.187
 64 B1   88 A1   65 B1   89 A1   66 B1   90 A1   67 B1   91 A1                 
 10.544  20.635  20.695  20.708  20.824  20.852  21.124  26.795
 92 A1   93 A1   94 A1   68 B1   95 A1   69 B1   96 A1   37 B2                 
 27.056  27.522  80.200  80.266  80.282  80.380  80.405  80.613
 70 B1   97 A1   98 A1   99 A1   71 B1  100 A1   72 B1  101 A1                 
219.412 322.039 322.101 322.118 322.201 322.223 322.3901431.607
102 A1  103 A1  104 A1   73 B1  105 A1   74 B1  106 A1  107 A1                 
*******1431.6801431.7491431.7681431.9088749.8448749.8938749.909
108 A1   75 B1  109 A1   76 B1  110 A1  111 A1  112 A1   77 B1                 
*******8749.9818750.093
113 A1   78 B1  114 A1                                                         
 
 Beta MOs, Restricted
 -- Occupied --                  
-104.84  -11.31  -11.25  -11.25  -11.25  -11.25  -11.25  -10.57
  1 A1    2 A1    3 A1    1 B1    4 A1    2 B1    5 A1    6 A1                 
 -8.034  -8.031  -8.031  -1.196  -1.124  -1.036  -1.000  -0.850
  7 A1    3 B1    1 B2    8 A1    9 A1    4 B1   10 A1    5 B1                 
 -0.823  -0.715  -0.651  -0.651  -0.607  -0.593  -0.547  -0.520
 11 A1   12 A1    6 B1   13 A1    7 B1   14 A1    2 B2    8 B1                 
 -0.515  -0.471  -0.456  -0.354  -0.338
 15 A1    3 B2    9 B1    1 A2    4 B2                                         
 -- Virtual --                   
  0.014   0.020   0.021   0.032   0.032   0.033   0.043   0.044
 16 A1   10 B1   17 A1    5 B2   18 A1   11 B1    2 A2    6 B2                 
  0.045   0.048   0.054   0.055   0.056   0.063   0.063   0.065
 19 A1   20 A1   12 B1    3 A2    7 B2   21 A1    8 B2   13 B1                 
  0.068   0.069   0.070   0.073   0.074   0.078   0.091   0.096
 22 A1    9 B2   14 B1   23 A1   15 B1   24 A1   25 A1   16 B1                 
  0.100   0.102   0.104   0.106   0.126   0.163   0.169   0.172
 26 A1    4 A2   10 B2   17 B1   27 A1   11 B2   28 A1   18 B1                 
  0.176   0.180   0.181   0.192   0.211   0.213   0.214   0.222
 29 A1    5 A2   12 B2   30 A1   19 B1   31 A1   13 B2   32 A1                 
  0.222   0.229   0.232   0.235   0.238   0.243   0.244   0.247
 20 B1   14 B2    6 A2   21 B1   33 A1   15 B2   34 A1   22 B1                 
  0.252   0.264   0.280   0.291   0.295   0.303   0.314   0.330
 23 B1   35 A1   36 A1   24 B1   25 B1   37 A1   38 A1   26 B1                 
  0.357   0.366   0.378   0.414   0.418   0.432   0.441   0.491
 16 B2   39 A1   40 A1   41 A1   27 B1   42 A1   28 B1   43 A1                 
  0.500   0.509   0.509   0.620   0.631   0.643   0.652   0.662
 29 B1   44 A1   30 B1   45 A1   31 B1   32 B1   17 B2   46 A1                 
  0.720   0.730   0.742   0.743   0.745   0.772   0.782   0.794
 47 A1   33 B1   48 A1   18 B2   34 B1    7 A2   19 B2   35 B1                 
  0.821   0.822   0.823   0.881   0.884   0.898   0.934   0.936
 49 A1    8 A2   20 B2   50 A1   21 B2   51 A1   52 A1   36 B1                 
  0.955   0.973   1.018   1.024   1.039   1.060   1.067   1.082
 37 B1   53 A1   38 B1   54 A1   55 A1   39 B1   22 B2   56 A1                 
  1.095   1.100   1.133   1.139   1.173   1.192   1.221   1.225
 57 A1   40 B1   41 B1    9 A2   58 A1   42 B1   59 A1   23 B2                 
  1.235   1.273   1.309   1.352   1.376   1.443   1.467   1.475
 10 A2   60 A1   11 A2   24 B2   12 A2   61 A1   43 B1   62 A1                 
  1.581   1.663   1.728   1.776   1.787   1.824   1.831   1.844
 25 B2   63 A1   44 B1   64 A1   45 B1   26 B2   13 A2   65 A1                 
  1.892   1.908   1.909   1.963   1.999   2.008   2.042   2.103
 27 B2   66 A1   46 B1   67 A1   47 B1   28 B2   14 A2   48 B1                 
  2.168   2.218   2.220   2.221   2.236   2.243   2.287   2.323
 68 A1   49 B1   15 A2   29 B2   50 B1   69 A1   30 B2   70 A1                 
  2.352   2.368   2.392   2.579   2.611   2.647   2.684   2.748
 51 B1   16 A2   71 A1   31 B2   52 B1   17 A2   32 B2   72 A1                 
  2.777   2.798   2.810   2.867   2.914   2.935   2.981   2.997
 53 B1   73 A1   54 B1   55 B1   74 A1   75 A1   76 A1   77 A1                 
  3.009   3.026   3.038   3.043   3.066   3.191   3.194   3.205
 56 B1   78 A1   79 A1   57 B1   33 B2   34 B2   18 A2   58 B1                 
  3.210   3.283   3.288   3.321   3.473   3.567   3.631   3.757
 80 A1   35 B2   19 A2   59 B1   36 B2   60 B1   81 A1   61 B1                 
  3.782   3.902   3.919   4.022   4.189   4.384   4.442   4.510
 82 A1   62 B1   83 A1   84 A1   85 A1   63 B1   86 A1   87 A1                 
  4.516   5.123   5.263   5.442   5.447   5.754   5.779   6.187
 64 B1   88 A1   65 B1   89 A1   66 B1   90 A1   67 B1   91 A1                 
 10.544  20.635  20.695  20.708  20.824  20.852  21.124  26.795
 92 A1   93 A1   94 A1   68 B1   95 A1   69 B1   96 A1   37 B2                 
 27.056  27.522  80.200  80.266  80.282  80.380  80.405  80.613
 70 B1   97 A1   98 A1   99 A1   71 B1  100 A1   72 B1  101 A1                 
219.412 322.039 322.101 322.118 322.201 322.223 322.3901431.607
102 A1  103 A1  104 A1   73 B1  105 A1   74 B1  106 A1  107 A1                 
*******1431.6801431.7491431.7681431.9088749.8448749.8938749.909
108 A1   75 B1  109 A1   76 B1  110 A1  111 A1  112 A1   77 B1                 
*******8749.9818750.093
113 A1   78 B1  114 A1                                                         
 --------------------------------------------------------------
 
          Ground-State Mulliken Net Atomic Charges

     Atom                 Charge (a.u.)
  ----------------------------------------
      1 H                     0.191423
      2 C                    -0.467624
      3 C                    -0.325326
      4 H                     0.223694
      5 C                    -0.337041
      6 H                     0.184041
      7 C                    -0.325326
      8 H                     0.223694
      9 C                    -0.467624
     10 H                     0.191423
     11 C                     0.389122
     12 Cl                    0.519542
  ----------------------------------------
  Sum of atomic charges =    -0.000000

 -----------------------------------------------------------------
                    Cartesian Multipole Moments
 -----------------------------------------------------------------
    Charge (ESU x 10^10)
                -0.0000
    Dipole Moment (Debye)
         X       0.0000      Y      -0.0000      Z      -1.9696
       Tot       1.9696
    Quadrupole Moments (Debye-Ang)
        XX     -42.4455     XY       0.0000     YY     -52.7498
        XZ       0.0000     YZ       0.0000     ZZ     -46.7168
    Octopole Moments (Debye-Ang^2)
       XXX       0.0000    XXY      -0.0000    XYY      -0.0000
       YYY      -0.0000    XXZ      -1.4039    XYZ       0.0000
       YYZ       7.5122    XZZ       0.0000    YZZ      -0.0000
       ZZZ      -6.2786
    Hexadecapole Moments (Debye-Ang^3)
      XXXX    -275.2649   XXXY       0.0000   XXYY     -69.5895
      XYYY       0.0000   YYYY     -64.7746   XXXZ       0.0000
      XXYZ       0.0000   XYYZ       0.0000   YYYZ       0.0000
      XXZZ    -181.1018   XYZZ       0.0000   YYZZ    -165.9787
      XZZZ       0.0000   YZZZ       0.0000   ZZZZ    -787.0201
 -----------------------------------------------------------------
Archival summary:
1\1\n-62-29-5\SP\ProcedureUnspecified\BasisUnspecified\l165\malop\TueNov2014:37:472018TueNov2014:37:472018\0\\#,ProcedureUnspecified,BasisUnspecified,\\0,1\Cl\C,1,1.73093\C,2,1.39121,1,119.398\H,3,1.08039,2,119.798,1,-0,0\C,2,1.39121,1,119.398,3,-180,0\H,5,1.08039,2,119.798,1,0,0\C,3,1.39191,2,119.079,1,180,0\H,7,1.08135,3,119.367,2,180,0\C,5,1.39191,2,119.079,1,180,0\H,9,1.08135,5,119.367,2,-180,0\C,7,1.39245,3,120.451,2,0,0\H,11,1.08085,7,120.132,3,-180,0\\HF=-689.680939\\@

 Total job time:  2133.67s(wall), 15599.41s(cpu) 
 Tue Nov 20 14:37:47 2018

        *************************************************************
        *                                                           *
        *  Thank you very much for using Q-Chem.  Have a nice day.  *
        *                                                           *
        *************************************************************


