Q-Chem Developer Version!
                  Welcome to Q-Chem
     A Quantum Leap Into The Future Of Chemistry


 Q-Chem 5.1, Q-Chem, Inc., Pleasanton, CA (2018)

 Yihan Shao,  Zhengting Gan,  E. Epifanovsky,  A. T. B. Gilbert,  M. Wormit,  
 J. Kussmann,  A. W. Lange,  A. Behn,  Jia Deng,  Xintian Feng,  D. Ghosh,  
 M. Goldey,  P. R. Horn,  L. D. Jacobson,  I. Kaliman,  T. Kus,  A. Landau,  
 Jie Liu,  E. I. Proynov,  R. M. Richard,  R. P. Steele,  E. J. Sundstrom,  
 H. L. Woodcock III,  P. M. Zimmerman,  D. Zuev,  B. Albrecht,  E. Alguire,  
 S. A. Baeppler,  D. Barton,  Z. Benda,  Y. A. Bernard,  E. J. Berquist,  
 K. B. Bravaya,  H. Burton,  D. Casanova,  Chun-Min Chang,  Yunqing Chen,  
 A. Chien,  K. D. Closser,  M. P. Coons,  S. Coriani,  S. Dasgupta,  
 A. L. Dempwolff,  M. Diedenhofen,  Hainam Do,  R. G. Edgar,  Po-Tung Fang,  
 S. Faraji,  S. Fatehi,  Qingguo Feng,  K. D. Fenk,  J. Fosso-Tande,  
 Qinghui Ge,  A. Ghysels,  G. Gidofalvi,  J. Gomes,  J. Gonthier,  A. Gunina,  
 D. Hait,  M. W. D. Hanson-Heine,  P. H. P. Harbach,  A. W. Hauser,  
 J. E. Herr,  E. G. Hohenstein,  Z. C. Holden,  Kerwin Hui,  B. C. Huynh,  
 T.-C. Jagau,  Hyunjun Ji,  B. Kaduk,  K. Khistyaev,  Jaehoon Kim,  
 P. Klunzinger,  K. Koh,  D. Kosenkov,  L. Koulias,  T. Kowalczyk,  
 C. M. Krauter,  A. Kunitsa,  Ka Un Lao,  A. Laurent,  K. V. Lawler,  
 Joonho Lee,  D. Lefrancois,  S. Lehtola,  D. S. Levine,  Yi-Pei Li,  
 You-Sheng Lin,  Fenglai Liu,  E. Livshits,  A. Luenser,  P. Manohar,  
 E. Mansoor,  S. F. Manzer,  Shan-Ping Mao,  Yuezhi Mao,  N. Mardirossian,  
 A. V. Marenich,  T. Markovich,  L. A. Martinez-Martinez,  S. A. Maurer,  
 N. J. Mayhall,  S. C. McKenzie,  J.-M. Mewes,  A. F. Morrison,  
 J. W. Mullinax,  K. Nanda,  T. S. Nguyen-Beck,  R. Olivares-Amaya,  
 J. A. Parkhill,  T. M. Perrine,  F. Plasser,  P. Pokhilko,  S. Prager,  
 A. Prociuk,  E. Ramos,  D. R. Rehn,  F. Rob,  M. Schneider,  N. Sergueev,  
 S. M. Sharada,  S. Sharma,  D. W. Small,  T. Stauch,  T. Stein,  
 Yu-Chuan Su,  A. J. W. Thom,  A. Tkatchenko,  T. Tsuchimochi,  N. M. Tubman,  
 L. Vogt,  M. L. Vidal,  O. Vydrov,  M. A. Watson,  J. Wenzel,  
 M. de Wergifosse,  T. A. Wesolowski,  A. White,  J. Witte,  A. Yamada,  
 Jun Yang,  K. Yao,  S. Yeganeh,  S. R. Yost,  Zhi-Qiang You,  A. Zech,  
 Igor Ying Zhang,  Xing Zhang,  Yan Zhao,  Ying Zhu,  B. R. Brooks,  
 G. K. L. Chan,  C. J. Cramer,  M. S. Gordon,  W. J. Hehre,  A. Klamt,  
 M. W. Schmidt,  C. D. Sherrill,  D. G. Truhlar,  A. Aspuru-Guzik,  R. Baer,  
 A. T. Bell,  N. A. Besley,  Jeng-Da Chai,  A. E. DePrince, III,  
 R. A. DiStasio Jr.,  A. Dreuw,  B. D. Dunietz,  T. R. Furlani,  
 Chao-Ping Hsu,  Yousung Jung,  Jing Kong,  D. S. Lambrecht,  WanZhen Liang,  
 C. Ochsenfeld,  V. A. Rassolov,  L. V. Slipchenko,  J. E. Subotnik,  
 T. Van Voorhis,  J. M. Herbert,  A. I. Krylov,  P. M. W. Gill,  M. Head-Gordon

 Contributors to earlier versions of Q-Chem not listed above: 
 R. D. Adamson,  B. Austin,  J. Baker,  G. J. O. Beran,  K. Brandhorst,  
 S. T. Brown,  E. F. C. Byrd,  A. K. Chakraborty,  C.-L. Cheng,  
 Siu Hung Chien,  D. M. Chipman,  D. L. Crittenden,  H. Dachsel,  
 R. J. Doerksen,  A. D. Dutoi,  L. Fusti-Molnar,  W. A. Goddard III,  
 A. Golubeva-Zadorozhnaya,  S. R. Gwaltney,  G. Hawkins,  A. Heyden,  
 S. Hirata,  G. Kedziora,  F. J. Keil,  C. Kelley,  Jihan Kim,  R. A. King,  
 R. Z. Khaliullin,  P. P. Korambath,  W. Kurlancheek,  A. M. Lee,  M. S. Lee,  
 S. V. Levchenko,  Ching Yeh Lin,  D. Liotard,  R. C. Lochan,  I. Lotan,  
 P. E. Maslen,  N. Nair,  D. P. O'Neill,  D. Neuhauser,  E. Neuscamman,  
 C. M. Oana,  R. Olson,  B. Peters,  R. Peverati,  P. A. Pieniazek,  
 Y. M. Rhee,  J. Ritchie,  M. A. Rohrdanz,  E. Rosta,  N. J. Russ,  
 H. F. Schaefer III,  N. E. Schultz,  N. Shenvi,  A. C. Simmonett,  A. Sodt,  
 D. Stuck,  K. S. Thanthiriwatte,  V. Vanovschi,  Tao Wang,  A. Warshel,  
 C. F. Williams,  Q. Wu,  X. Xu,  W. Zhang

 Please cite Q-Chem as follows:
 Y. Shao et al., Mol. Phys. 113, 184-215 (2015)
 DOI: 10.1080/00268976.2014.952696

 Q-Chem 5.1.1 for Intel X86 EM64T Linux

 Parts of Q-Chem use Armadillo 8.300.2 (Tropical Shenanigans).
 http://arma.sourceforge.net/

 Q-Chem begins on Wed Sep  5 12:51:21 2018  

node22
Host: 0

     Scratch files written to /scratch/krylov/qchem5217//
Core orbitals will be frozen
Input Ideriv = 1
Curr. Ideriv = -1
Max.  Ideriv = 1
EOM-IP/EA analytic gradients are available only for UHF references
Setting UNRESTRICTED=TRUE

Checking the input file for inconsistencies... 	...done.

--------------------------------------------------------------
User input:
--------------------------------------------------------------
$molecule
0 1
  H    2.1527918    1.2429149    0.0000000
  C    1.2047582    0.6955675    0.0000000
  C    1.2047582   -0.6955675    0.0000000
  H    2.1527918   -1.2429149    0.0000000
  C   -0.0000000   -1.40        -0.0000000
  H   -0.0000000   -2.4858298   -0.0000000
  C   -1.2047582   -0.6955675   -0.0000000
  H   -2.1527918   -1.2429149   -0.0000000
  C   -1.2047582    0.6955675   -0.0000000
  H   -2.1527918    1.2429149   -0.0000000
  C    0.0000000    1.40         0.0000000
  H    0.0000000    2.4858298    0.0000000
$end

$rem
   JOB_TYPE  =  OPT
   BASIS  =  cc-pVTZ
   METHOD  =  EOM-CCSD
   IP_STATES = [0,0,1,0,0,0,0,0]
   CC_STATE_TO_OPT = [3,1]
   CC_MEMORY = 80000   
! use SP code 
  cc_single_prec=1
  eom_single_prec=1
  cc_sp_dm = 1
  cc_sp_t_conv = 4
  cc_sp_e_conv = 6
  cc_erase_dp_integrals = 1
$end


--------------------------------------------------------------
 ----------------------------------------------------------------
             Standard Nuclear Orientation (Angstroms)
    I     Atom           X                Y                Z
 ----------------------------------------------------------------
    1      H       1.2429149000    -2.1527918000    -0.0000000000
    2      C       0.6955675000    -1.2047582000    -0.0000000000
    3      C      -0.6955675000    -1.2047582000     0.0000000000
    4      H      -1.2429149000    -2.1527918000     0.0000000000
    5      C      -1.4000000000    -0.0000000000     0.0000000000
    6      H      -2.4858298000    -0.0000000000     0.0000000000
    7      C      -0.6955675000     1.2047582000     0.0000000000
    8      H      -1.2429149000     2.1527918000     0.0000000000
    9      C       0.6955675000     1.2047582000    -0.0000000000
   10      H       1.2429149000     2.1527918000    -0.0000000000
   11      C       1.4000000000     0.0000000000    -0.0000000000
   12      H       2.4858298000     0.0000000000    -0.0000000000
 ----------------------------------------------------------------
 Molecular Point Group                 D2h   NOp =  8
 Largest Abelian Subgroup              D2h   NOp =  8
 Nuclear Repulsion Energy =   203.3661814086 hartrees
 There are       21 alpha and       21 beta electrons
 Requested basis set is cc-pVTZ
 There are 96 shells and 264 basis functions
MEM_TOTAL is adjusted to CC_MEMORY + MEM_STATIC!
 Total memory of 80192MB is distributed as follows: 
   QALLOC including MEM_STATIC uses 192MB
   MEM_STATIC is set to 192MB
   CCMAN JOB total memory use is  80000MB
 Warning: actual memory use might exceed 80192MB

 Total QAlloc Memory Limit    192 MB
 Mega-Array Size       188 MB
 MEM_STATIC part       192 MB
 A cutoff of  1.0D-14 yielded   4506 shell pairs
 There are     34422 function pairs (     44637 Cartesian)

 -------------------------------------------------------
 OpenMP Integral Computing Module                       
 Release: version 1.0, May 2013, Q-Chem Inc. Pittsburgh 
 -------------------------------------------------------
 Integral Job Info:
 Integral job number is                      11
 Integral operator is                         1
 short-range coefficients                     0
 long-range coefficients              100000000
 Omega coefficients                           0
 if combine SR and LR in K                    0
 Integral screening is                        0
 Integral computing path is                   2
 max size of driver memory is            800000
 size of driver memory is                776718
 size of scratch memory is              4657032
 max col of scratch BK array              10000
 max len of scratch array in speh3          662
 max len of scratch index in speh4           32
 max int batch size is                      520
 min int batch size is                       52
 fixed nKL is                                52
 max L of basis functions is                  3
 order of int derivative is                   0
 number of shells is                         96
 number of basis is                         300
 number of cartesian basis is               300
 number of contracted shell pairs          4506
 number of primitive shell pairs          13674
 maxK2 (contraction) of shell pair           49
 max number of K2 of shell pair               1
 max number of CS2 of shell pair            618
 max number of PS2 of shell pair           2212
 mem total for path MDJ                  624864
 -------------------------------------------------------
 Smallest overlap matrix eigenvalue = 3.77E-05

 Scale SEOQF with 1.000000e-01/1.000000e-01/1.000000e+00

 Standard Electronic Orientation quadrupole field applied
 Nucleus-field energy     =     0.0000000057 hartrees
 Guess from superposition of atomic densities
 Warning:  Energy on first SCF cycle will be non-variational
 SAD guess density has 42.000000 electrons

 -----------------------------------------------------------------------
  General SCF calculation program by
  Eric Jon Sundstrom, Paul Horn, Yuezhi Mao, Dmitri Zuev, Alec White,
  David Stuck, Shaama M.S., Shane Yost, Joonho Lee, David Small,
  Daniel Levine, Susi Lehtola, Hugh Burton, Evgeny Epifanovsky
 -----------------------------------------------------------------------
 Hartree-Fock
 using 8 threads for integral computing
 -------------------------------------------------------
 OpenMP Integral computing Module                
 Release: version 2.0, May 2017, Q-Chem Inc. Pleasanton 
 -------------------------------------------------------
 A unrestricted SCF calculation will be
 performed using DIIS
 SCF converges when DIIS error is below 1.0e-08
 ---------------------------------------
  Cycle       Energy         DIIS error
 ---------------------------------------
    1    -233.1947547017      1.69e-02  
    2    -230.7132055878      1.12e-03  
    3    -230.7727623306      3.19e-04  
    4    -230.7774688469      1.39e-04  
    5    -230.7781716778      1.03e-05  
    6    -230.7781794812      1.69e-06  
    7    -230.7781797161      4.95e-07  
    8    -230.7781797343      1.64e-07  
    9    -230.7781797355      3.32e-08  
   10    -230.7781797354      3.82e-09  Convergence criterion met
 ---------------------------------------
 SCF time:   CPU 97.03s  wall 13.00s 
<S^2> =         -0.000000000
 SCF   energy in the final basis set =     -230.7781797354
 Total energy in the final basis set =     -230.7781797354


 ------------------------------------------------------------------------------

   CCMAN2: suite of methods based on coupled cluster
           and equation of motion theories.

   Components:
   * libvmm-1.3-trunk
     by Evgeny Epifanovsky, Ilya Kaliman.
   * libtensor-2.5-trunk
     by Evgeny Epifanovsky, Michael Wormit, Dmitry Zuev, Sam Manzer, 
        Ilya Kaliman.
   * libcc-2.5-trunk
     by Evgeny Epifanovsky, Arik Landau, Tomasz Kus, Kirill Khistyaev, 
        Dmitry Zuev, Prashant Manohar, Xintian Feng, Anna Krylov, 
        Matthew Goldey, Alec White, Thomas Jagau, Kaushik Nanda, 
        Anastasia Gunina, Alexander Kunitsa, Joonho Lee.

   CCMAN original authors:
   Anna I. Krylov, C. David Sherrill, Steven R. Gwaltney,
   Edward F. C. Byrd (2000)
   Sergey V. Levchenko, Lyudmila V. Slipchenko, Tao Wang,
   Ana-Maria C. Cristian (2003)
   Piotr A. Pieniazek, C. Melania Oana, Evgeny Epifanovsky (2007)
   Prashant Manohar (2009)

 ------------------------------------------------------------------------------


 Allocating and initializing 80000MB of RAM...
 Calculation will run on 8 cores.


 Alpha MOs, Unrestricted
 -- Occupied --                  
-11.236 -11.235 -11.235 -11.234 -11.234 -11.233  -1.148  -1.012
  1 Ag    1 B2u   1 B3u   1 B1g   2 Ag    2 B3u   3 Ag    3 B3u                
 -1.012  -0.822  -0.819  -0.705  -0.639  -0.617  -0.586  -0.583
  2 B2u   4 Ag    2 B1g   5 Ag    4 B3u   3 B2u   5 B3u   4 B2u                
 -0.501  -0.494  -0.489  -0.336  -0.335
  1 B1u   6 Ag    3 B1g   1 B3g   1 B2g                                        
 -- Virtual --                   
  0.127   0.129   0.145   0.170   0.170   0.201   0.201   0.221
  2 B1u   1 Au    7 Ag    6 B3u   5 B2u   8 Ag    4 B1g   7 B3u                
  0.330   0.359   0.359   0.394   0.416   0.417   0.419   0.431
  2 B2g   9 Ag    5 B1g   6 B2u  10 Ag    7 B2u   8 B3u   3 B1u                
  0.474   0.474   0.507   0.524   0.524   0.550   0.573   0.574
  2 B3g   3 B2g  11 Ag    8 B2u   9 B3u  10 B3u   4 B1u   2 Au                 
  0.589   0.589   0.591   0.593   0.624   0.641   0.641   0.643
 12 Ag    6 B1g   9 B2u  11 B3u   5 B1u   7 B1g  13 Ag   14 Ag                 
  0.643   0.668   0.703   0.726   0.726   0.750   0.752   0.844
  8 B1g   4 B2g  12 B3u  15 Ag    9 B1g  10 B2u  13 B3u   3 B3g                
  0.858   0.860   0.903   0.904   0.952   0.956   0.957   1.000
  5 B2g   4 B3g  11 B2u  14 B3u  10 B1g   6 B1u   3 Au   15 B3u                
  1.005   1.028   1.028   1.085   1.120   1.128   1.210   1.216
 16 Ag   11 B1g  17 Ag   12 B2u   7 B1u  16 B3u   6 B2g   4 Au                 
  1.219   1.229   1.231   1.291   1.291   1.310   1.310   1.316
  8 B1u  18 Ag   12 B1g   7 B2g   5 B3g  17 B3u  13 B2u  19 Ag                 
  1.376   1.377   1.475   1.490   1.505   1.507   1.508   1.508
 14 B2u  18 B3u  15 B2u  13 B1g  19 B3u  14 B1g  16 B2u  20 Ag                 
  1.509   1.509   1.587   1.590   1.609   1.613   1.615   1.627
  6 B3g   8 B2g   9 B1u   5 Au   21 Ag   20 B3u  15 B1g  17 B2u                
  1.629   1.717   1.721   1.731   1.764   1.811   1.893   2.085
 21 B3u  22 Ag   16 B1g  23 Ag    9 B2g   6 Au   22 B3u  17 B1g                
  2.182   2.183   2.227   2.291   2.294   2.333   2.376   2.441
 24 Ag   18 B1g  23 B3u  18 B2u  24 B3u  10 B1u  25 Ag    7 B3g                
  2.444   2.465   2.467   2.476   2.537   2.538   2.604   2.662
 10 B2g  19 B2u  25 B3u  20 B2u  11 B1u   7 Au    8 B3g  26 Ag                 
  2.739   2.745   2.773   2.775   2.795   2.844   2.901   2.910
 27 Ag   19 B1g  26 B3u  21 B2u  12 B1u  11 B2g  28 Ag   20 B1g                
  2.933   2.948   2.950   2.989   3.004   3.004   3.026   3.029
 22 B2u   8 Au   13 B1u  14 B1u   9 B3g  12 B2g  27 B3u  23 B2u                
  3.060   3.062   3.081   3.100   3.158   3.162   3.229   3.229
 13 B2g  10 B3g  29 Ag   28 B3u  21 B1g  30 Ag   15 B1u  14 B2g                
  3.232   3.294   3.296   3.321   3.324   3.344   3.373   3.377
 11 B3g  22 B1g  31 Ag   24 B2u  29 B3u  32 Ag   16 B1u   9 Au                 
  3.380   3.383   3.384   3.403   3.409   3.410   3.443   3.446
 25 B2u  30 B3u  26 B2u  23 B1g  33 Ag   34 Ag   17 B1u  31 B3u                
  3.447   3.459   3.505   3.612   3.612   3.621   3.654   3.658
 10 Au   12 B3g  24 B1g  18 B1u  11 Au   15 B2g  27 B2u  12 Au                 
  3.658   3.689   3.692   3.700   3.706   3.715   3.717   3.768
 32 B3u  35 Ag   25 B1g  28 B2u  33 B3u  13 B3g  16 B2g  34 B3u                
  3.903   3.906   3.907   3.919   4.044   4.058   4.089   4.094
 26 B1g  14 B3g  36 Ag   17 B2g  37 Ag   13 Au   18 B2g  15 B3g                
  4.105   4.109   4.114   4.119   4.121   4.126   4.130   4.165
 29 B2u  35 B3u  19 B1u  27 B1g  38 Ag   30 B2u  28 B1g  20 B1u                
  4.166   4.175   4.202   4.203   4.323   4.323   4.351   4.414
 14 Au   36 B3u  16 B3g  19 B2g  37 B3u  31 B2u  38 B3u  15 Au                 
  4.418   4.421   4.436   4.449   4.484   4.490   4.499   4.531
 29 B1g  21 B1u  30 B1g  39 Ag   40 Ag   32 B2u  20 B2g  31 B1g                
  4.533   4.561   4.656   4.663   4.664   4.665   4.669   4.674
 41 Ag   39 B3u  17 B3g  22 B1u  40 B3u  21 B2g  33 B2u  32 B1g                
  4.675   4.676   4.864   4.876   4.880   4.972   5.038   5.047
 42 Ag   16 Au   43 Ag   44 Ag   33 B1g  23 B1u  34 B2u  41 B3u                
  5.061   5.088   5.091   5.092   5.100   5.164   5.238   5.294
 22 B2g  35 B2u  18 B3g  42 B3u  23 B2g  17 Au   36 B2u  45 Ag                 
  5.345   5.347   5.357   5.359   5.395   5.397   5.513   5.515
 18 Au   34 B1g  24 B1u  43 B3u  35 B1g  46 Ag   44 B3u  37 B2u                
  5.725   5.731   5.788   6.033   6.041   6.073   6.261   6.264
 38 B2u  45 B3u  24 B2g  36 B1g  47 Ag   46 B3u  48 Ag   37 B1g                
  6.365   6.491   6.494   6.846   7.307   9.322  12.915  12.998
 38 B1g  39 B2u  47 B3u  48 B3u  39 B1g  49 Ag   40 B2u  49 B3u                
 13.513  13.534  16.168
 50 Ag   40 B1g  50 B3u                                                        

 Beta MOs, Unrestricted
 -- Occupied --                  
-11.236 -11.235 -11.235 -11.234 -11.234 -11.233  -1.148  -1.012
  1 Ag    1 B2u   1 B3u   1 B1g   2 Ag    2 B3u   3 Ag    3 B3u                
 -1.012  -0.822  -0.819  -0.705  -0.639  -0.617  -0.586  -0.583
  2 B2u   4 Ag    2 B1g   5 Ag    4 B3u   3 B2u   5 B3u   4 B2u                
 -0.501  -0.494  -0.489  -0.336  -0.335
  1 B1u   6 Ag    3 B1g   1 B3g   1 B2g                                        
 -- Virtual --                   
  0.127   0.129   0.145   0.170   0.170   0.201   0.201   0.221
  2 B1u   1 Au    7 Ag    6 B3u   5 B2u   8 Ag    4 B1g   7 B3u                
  0.330   0.359   0.359   0.394   0.416   0.417   0.419   0.431
  2 B2g   9 Ag    5 B1g   6 B2u  10 Ag    7 B2u   8 B3u   3 B1u                
  0.474   0.474   0.507   0.524   0.524   0.550   0.573   0.574
  2 B3g   3 B2g  11 Ag    8 B2u   9 B3u  10 B3u   4 B1u   2 Au                 
  0.589   0.589   0.591   0.593   0.624   0.641   0.641   0.643
 12 Ag    6 B1g   9 B2u  11 B3u   5 B1u   7 B1g  13 Ag   14 Ag                 
  0.643   0.668   0.703   0.726   0.726   0.750   0.752   0.844
  8 B1g   4 B2g  12 B3u  15 Ag    9 B1g  10 B2u  13 B3u   3 B3g                
  0.858   0.860   0.903   0.904   0.952   0.956   0.957   1.000
  5 B2g   4 B3g  11 B2u  14 B3u  10 B1g   6 B1u   3 Au   15 B3u                
  1.005   1.028   1.028   1.085   1.120   1.128   1.210   1.216
 16 Ag   11 B1g  17 Ag   12 B2u   7 B1u  16 B3u   6 B2g   4 Au                 
  1.219   1.229   1.231   1.291   1.291   1.310   1.310   1.316
  8 B1u  18 Ag   12 B1g   7 B2g   5 B3g  17 B3u  13 B2u  19 Ag                 
  1.376   1.377   1.475   1.490   1.505   1.507   1.508   1.508
 14 B2u  18 B3u  15 B2u  13 B1g  19 B3u  14 B1g  16 B2u  20 Ag                 
  1.509   1.509   1.587   1.590   1.609   1.613   1.615   1.627
  6 B3g   8 B2g   9 B1u   5 Au   21 Ag   20 B3u  15 B1g  17 B2u                
  1.629   1.717   1.721   1.731   1.764   1.811   1.893   2.085
 21 B3u  22 Ag   16 B1g  23 Ag    9 B2g   6 Au   22 B3u  17 B1g                
  2.182   2.183   2.227   2.291   2.294   2.333   2.376   2.441
 24 Ag   18 B1g  23 B3u  18 B2u  24 B3u  10 B1u  25 Ag    7 B3g                
  2.444   2.465   2.467   2.476   2.537   2.538   2.604   2.662
 10 B2g  19 B2u  25 B3u  20 B2u  11 B1u   7 Au    8 B3g  26 Ag                 
  2.739   2.745   2.773   2.775   2.795   2.844   2.901   2.910
 27 Ag   19 B1g  26 B3u  21 B2u  12 B1u  11 B2g  28 Ag   20 B1g                
  2.933   2.948   2.950   2.989   3.004   3.004   3.026   3.029
 22 B2u   8 Au   13 B1u  14 B1u   9 B3g  12 B2g  27 B3u  23 B2u                
  3.060   3.062   3.081   3.100   3.158   3.162   3.229   3.229
 13 B2g  10 B3g  29 Ag   28 B3u  21 B1g  30 Ag   15 B1u  14 B2g                
  3.232   3.294   3.296   3.321   3.324   3.344   3.373   3.377
 11 B3g  22 B1g  31 Ag   24 B2u  29 B3u  32 Ag   16 B1u   9 Au                 
  3.380   3.383   3.384   3.403   3.409   3.410   3.443   3.446
 25 B2u  30 B3u  26 B2u  23 B1g  33 Ag   34 Ag   17 B1u  31 B3u                
  3.447   3.459   3.505   3.612   3.612   3.621   3.654   3.658
 10 Au   12 B3g  24 B1g  18 B1u  11 Au   15 B2g  27 B2u  12 Au                 
  3.658   3.689   3.692   3.700   3.706   3.715   3.717   3.768
 32 B3u  35 Ag   25 B1g  28 B2u  33 B3u  13 B3g  16 B2g  34 B3u                
  3.903   3.906   3.907   3.919   4.044   4.058   4.089   4.094
 26 B1g  14 B3g  36 Ag   17 B2g  37 Ag   13 Au   18 B2g  15 B3g                
  4.105   4.109   4.114   4.119   4.121   4.126   4.130   4.165
 29 B2u  35 B3u  19 B1u  27 B1g  38 Ag   30 B2u  28 B1g  20 B1u                
  4.166   4.175   4.202   4.203   4.323   4.323   4.351   4.414
 14 Au   36 B3u  16 B3g  19 B2g  37 B3u  31 B2u  38 B3u  15 Au                 
  4.418   4.421   4.436   4.449   4.484   4.490   4.499   4.531
 29 B1g  21 B1u  30 B1g  39 Ag   40 Ag   32 B2u  20 B2g  31 B1g                
  4.533   4.561   4.656   4.663   4.664   4.665   4.669   4.674
 41 Ag   39 B3u  17 B3g  22 B1u  40 B3u  21 B2g  33 B2u  32 B1g                
  4.675   4.676   4.864   4.876   4.880   4.972   5.038   5.047
 42 Ag   16 Au   43 Ag   44 Ag   33 B1g  23 B1u  34 B2u  41 B3u                
  5.061   5.088   5.091   5.092   5.100   5.164   5.238   5.294
 22 B2g  35 B2u  18 B3g  42 B3u  23 B2g  17 Au   36 B2u  45 Ag                 
  5.345   5.347   5.357   5.359   5.395   5.397   5.513   5.515
 18 Au   34 B1g  24 B1u  43 B3u  35 B1g  46 Ag   44 B3u  37 B2u                
  5.725   5.731   5.788   6.033   6.041   6.073   6.261   6.264
 38 B2u  45 B3u  24 B2g  36 B1g  47 Ag   46 B3u  48 Ag   37 B1g                
  6.365   6.491   6.494   6.846   7.307   9.322  12.915  12.998
 38 B1g  39 B2u  47 B3u  48 B3u  39 B1g  49 Ag   40 B2u  49 B3u                
 13.513  13.534  16.168
 50 Ag   40 B1g  50 B3u                                                        

 Occupation and symmetry of molecular orbitals

 Point group: D2h (8 irreducible representations).

                           Ag   B1g  B2g  B3g  Au   B1u  B2u  B3u   All 
 ------------------------------------------------------------------------
 All molecular orbitals:
  - Alpha                  50   40   24   18   18   24   40   50    264 
  - Beta                   50   40   24   18   18   24   40   50    264 
 ------------------------------------------------------------------------
 Alpha orbitals:
  - Frozen occupied        2    1    0    0    0    0    1    2     6   
  - Active occupied        4    2    1    1    0    1    3    3     15  
  - Active virtual         44   37   23   17   18   23   36   45    243 
  - Frozen virtual         0    0    0    0    0    0    0    0     0   
 ------------------------------------------------------------------------
 Beta orbitals:
  - Frozen occupied        2    1    0    0    0    0    1    2     6   
  - Active occupied        4    2    1    1    0    1    3    3     15  
  - Active virtual         44   37   23   17   18   23   36   45    243 
  - Frozen virtual         0    0    0    0    0    0    0    0     0   
 ------------------------------------------------------------------------

 Import integrals:   CPU 0.00 s  wall 0.00 s

 Import integrals:   CPU 1549.27 s  wall 239.54 s

 MP2 amplitudes:   CPU 17.62 s  wall 4.95 s

Running a single precision version
I will use integrals, stored in single precision format
           CCSD T amplitudes will be solved using DIIS.

           Start     Size      MaxIter   EConv     TConv     
           3         7         100       1.00e-06  1.00e-04  
 ------------------------------------------------------------------------------
           Energy (a.u.)   Ediff      Tdiff       Comment
 ------------------------------------------------------------------------------
          -231.72894439                           
     1    -231.72251097   6.43e-03   9.50e-01     
     2    -231.75052874   2.80e-02   1.29e-01     
     3    -231.75005042   4.78e-04   4.53e-02     
     4    -231.75251930   2.47e-03   1.28e-02     Switched to DIIS steps.
     5    -231.75334430   8.25e-04   1.08e-02     
     6    -231.75335013   5.83e-06   1.92e-03     
     7    -231.75334121   8.93e-06   6.72e-04     
     8    -231.75334097   2.32e-07   1.37e-04     
     9    -231.75334138   4.08e-07   3.79e-05     
 ------------------------------------------------------------------------------
          -231.75334138                           CCSD T converged.

End of single precision
No iterations in double precision will be done
 SCF energy                 = -230.77817974
 MP2 energy                 = -231.72894519
 CCSD correlation energy     =   -0.97516177
 CCSD total energy           = -231.75334150

 CCSD  T1^2 = 0.0062  T2^2 = 0.3554  Leading amplitudes:

 Amplitude    Orbitals with energies
  0.0219       1 (B2g) A                 ->    3 (B2g) A                  
              -0.3352                          0.4744                     
  0.0219       1 (B2g) B                 ->    3 (B2g) B                  
              -0.3352                          0.4744                     
 -0.0217       1 (B3g) B                 ->    2 (B3g) B                  
              -0.3359                          0.4742                     
 -0.0217       1 (B3g) A                 ->    2 (B3g) A                  
              -0.3359                          0.4742                     

 Amplitude    Orbitals with energies
 -0.0811       1 (B2g) A     1 (B2g) B   ->    2 (B1u) A     2 (B1u) B    
              -0.3352       -0.3352            0.1273        0.1273       
  0.0811       1 (B2g) A     1 (B2g) B   ->    2 (B1u) B     2 (B1u) A    
              -0.3352       -0.3352            0.1273        0.1273       
  0.0811       1 (B2g) B     1 (B2g) A   ->    2 (B1u) A     2 (B1u) B    
              -0.3352       -0.3352            0.1273        0.1273       
 -0.0811       1 (B2g) B     1 (B2g) A   ->    2 (B1u) B     2 (B1u) A    
              -0.3352       -0.3352            0.1273        0.1273       

 Computing CCSD intemediates for later calculations in single precision
 Finished.

 CCSD calculation:   CPU 1047.24 s  wall 181.86 s

 EOMEE-CCSD calculation:   CPU 34.89 s  wall 10.70 s

        Solving for EOMIP-CCSD B2g transitions.

Running a single precision version
      EOMIP-CCSD/MP2 right amplitudes will be solved using Davidson.
      Amplitudes will be solved using standard  algorithm
      Roots     MaxVec    MaxIter   Precond   Conv      Thresh    Shift    
      1         60        60        1         1.00e-06  1.00e-06  0.00e+00  
 ------------------------------------------------------------------------------
      Iter ConvRoots NVecs ResNorm Current eigenvalues (eV)
 ------------------------------------------------------------------------------
      0    0      1     9.29e-02   11.4368   
      1    0      2     2.88e-02   9.7745   
      2    0      3     7.56e-04   9.3255   
      3    0      4     4.48e-05   9.3054   
      4    0      5     1.69e-06   9.3041   
      5    1      6     7.08e-08   9.3041*  

     Davidson procedure converged

 EOMIP transition 1/B2g
 Total energy = -231.41142325 a.u.  Excitation energy = 9.3041 eV.
 R1^2 = 0.9420  R2^2 = 0.0580  Res^2 = 7.08e-08
 Conv-d = yes

 Amplitude    Transitions between orbitals
  0.9706       1 (B2g) A                 ->    infty        

              Summary of significant orbitals:

               Number  Type             Irrep      Energy
               21      Occ  Alpha       1 (B2g)     -0.3352


Running a single precision version
      EOMIP-CCSD/MP2 left amplitudes will be solved using Davidson.
      Amplitudes will be solved using MOM  algorithm
      Roots     MaxVec    MaxIter   Precond   Conv      Thresh    Shift    
      1         60        60        1         1.00e-06  1.00e-06  0.00e+00  
 ------------------------------------------------------------------------------
      Iter ConvRoots NVecs ResNorm Current eigenvalues (eV)
 ------------------------------------------------------------------------------
      0    0      1     2.96e-03   9.3041   
      1    0      2     9.37e-04   9.3041   
      2    0      3     4.66e-05   9.3041   
      3    0      4     2.76e-06   9.3041   
      4    1      5     1.04e-07   9.3041*  

     Davidson procedure converged

Running a double precision version
           EOM amplitude response will be solved using DIIS.
           Start     Size      MaxIter   EConv     ZConv     
           3         7         100       1.00e-06  1.00e-06  
 ------------------------------------------------------------------------------
            Enorm      Zdiff       Comment
 ------------------------------------------------------------------------------
     1     8.69e-02   5.22e-02     
     2     3.04e-02   1.91e-02     
     3     1.47e-02   7.11e-03     
     4     4.16e-03   5.66e-03     Switched to DIIS steps.
     5     1.89e-03   9.31e-04     
     6     6.12e-04   3.68e-04     
     7     1.75e-04   5.78e-05     
     8     6.40e-05   8.43e-06     
     9     2.00e-05   2.34e-06     
    10     7.34e-06   1.48e-07     
    11     1.99e-06   2.45e-07     
    12     7.03e-07   4.87e-08     
 ------------------------------------------------------------------------------
                                   Amplitude response converged.

           Orbital response amplitudes will be solved using DIIS.
           Start     Size      MaxIter   EConv     LConv     
           3         7         100       1.00e-06  1.00e-06  
 ------------------------------------------------------------------------------
            Enorm      Ldiff       Comment
 ------------------------------------------------------------------------------
     1     9.55e-02   1.89e-03     
     2     5.81e-02   1.44e-02     
     3     5.09e-02   2.03e-02     
     4     6.30e-03   1.13e-02     Switched to DIIS steps.
     5     3.48e-03   4.10e-03     
     6     1.45e-03   2.29e-03     
     7     3.77e-04   6.57e-04     
     8     1.20e-04   2.07e-04     
     9     2.79e-05   5.82e-05     
    10     6.70e-06   4.37e-06     
    11     2.44e-06   4.21e-10     
    12     6.80e-07   3.17e-07     
 ------------------------------------------------------------------------------
                                   Orbital response converged.

 EOMIP-CCSD calculation:   CPU 2026.11 s  wall 1592.26 s

 Transferring MO TPDM to AO TPDM
 Transferring g2_o1o1o1o1
 Transferring g2_o1o1o1v1
 Transferring g2_o1o1v1v1
 Transferring g2_o1v1o1v1
 Transferring g2_o1v1v1v1
 Transferring g2_v1v1v1v1
 Adding separable TPDM
 Computing TPDM gradient
 --------------------------------------------------------
 2e gradient
  Atom          X               Y               Z
 --------------------------------------------------------
    1         -2.095447        3.665111        0.000000  
    2         -4.738559        5.863228       -0.000000  
    3          4.738559        5.863228        0.000000  
    4          2.095447        3.665111       -0.000000  
    5          7.494365        0.000000       -0.000000  
    6          4.234325        0.000000       -0.000000  
    7          4.738559       -5.863228        0.000000  
    8          2.095447       -3.665111       -0.000000  
    9         -4.738559       -5.863228       -0.000000  
   10         -2.095447       -3.665111        0.000000  
   11         -7.494365       -0.000000        0.000000  
   12         -4.234325       -0.000000        0.000000  
 --------------------------------------------------------
 --------------------------------------------------------
 Final gradient
  Atom          X               Y               Z
 --------------------------------------------------------
    1         -2.095447        3.665111        0.000000  
    2         -4.738559        5.863228       -0.000000  
    3          4.738559        5.863228        0.000000  
    4          2.095447        3.665111       -0.000000  
    5          7.494365        0.000000       -0.000000  
    6          4.234325        0.000000       -0.000000  
    7          4.738559       -5.863228        0.000000  
    8          2.095447       -3.665111       -0.000000  
    9         -4.738559       -5.863228       -0.000000  
   10         -2.095447       -3.665111        0.000000  
   11         -7.494365       -0.000000        0.000000  
   12         -4.234325       -0.000000        0.000000  
 --------------------------------------------------------
 Analytic gradient from two-electron contribution:   CPU 118860.53 s  wall 16011.46 s

 Total ccman2 time:   CPU 123602.87 s  wall 18054.81 s


 --------------------------------------------------------------
             Orbital Energies (a.u.) and Symmetries
 --------------------------------------------------------------

 Alpha MOs, Unrestricted
 -- Occupied --                  
-11.236 -11.234 -11.234 -11.235 -11.235 -11.233  -1.148  -0.822
  1 Ag    2 Ag    1 B1g   1 B2u   1 B3u   2 B3u   3 Ag    4 Ag                 
 -0.705  -0.494  -0.819  -0.489  -0.335  -0.336  -0.501  -1.012
  5 Ag    6 Ag    2 B1g   3 B1g   1 B2g   1 B3g   1 B1u   2 B2u                
 -0.617  -0.583  -1.012  -0.639  -0.586
  3 B2u   4 B2u   3 B3u   4 B3u   5 B3u                                        
 -- Virtual --                   
  0.145   0.201   0.359   0.416   0.507   0.589   0.641   0.643
  7 Ag    8 Ag    9 Ag   10 Ag   11 Ag   12 Ag   13 Ag   14 Ag                 
  0.726   1.005   1.028   1.229   1.316   1.508   1.609   1.717
 15 Ag   16 Ag   17 Ag   18 Ag   19 Ag   20 Ag   21 Ag   22 Ag                 
  1.731   2.182   2.376   2.662   2.739   2.901   3.081   3.162
 23 Ag   24 Ag   25 Ag   26 Ag   27 Ag   28 Ag   29 Ag   30 Ag                 
  3.296   3.344   3.409   3.410   3.689   3.907   4.044   4.121
 31 Ag   32 Ag   33 Ag   34 Ag   35 Ag   36 Ag   37 Ag   38 Ag                 
  4.449   4.484   4.533   4.675   4.864   4.876   5.294   5.397
 39 Ag   40 Ag   41 Ag   42 Ag   43 Ag   44 Ag   45 Ag   46 Ag                 
  6.041   6.261   9.322  13.513   0.201   0.359   0.589   0.641
 47 Ag   48 Ag   49 Ag   50 Ag    4 B1g   5 B1g   6 B1g   7 B1g                
  0.643   0.726   0.952   1.028   1.231   1.490   1.507   1.615
  8 B1g   9 B1g  10 B1g  11 B1g  12 B1g  13 B1g  14 B1g  15 B1g                
  1.721   2.085   2.183   2.745   2.910   3.158   3.294   3.403
 16 B1g  17 B1g  18 B1g  19 B1g  20 B1g  21 B1g  22 B1g  23 B1g                
  3.505   3.692   3.903   4.119   4.130   4.418   4.436   4.531
 24 B1g  25 B1g  26 B1g  27 B1g  28 B1g  29 B1g  30 B1g  31 B1g                
  4.674   4.880   5.347   5.395   6.033   6.264   6.365   7.307
 32 B1g  33 B1g  34 B1g  35 B1g  36 B1g  37 B1g  38 B1g  39 B1g                
 13.534   0.330   0.474   0.668   0.858   1.210   1.291   1.509
 40 B1g   2 B2g   3 B2g   4 B2g   5 B2g   6 B2g   7 B2g   8 B2g                
  1.764   2.444   2.844   3.004   3.060   3.229   3.621   3.717
  9 B2g  10 B2g  11 B2g  12 B2g  13 B2g  14 B2g  15 B2g  16 B2g                
  3.919   4.089   4.203   4.499   4.665   5.061   5.100   5.788
 17 B2g  18 B2g  19 B2g  20 B2g  21 B2g  22 B2g  23 B2g  24 B2g                
  0.474   0.844   0.860   1.291   1.509   2.441   2.604   3.004
  2 B3g   3 B3g   4 B3g   5 B3g   6 B3g   7 B3g   8 B3g   9 B3g                
  3.062   3.232   3.459   3.715   3.906   4.094   4.202   4.656
 10 B3g  11 B3g  12 B3g  13 B3g  14 B3g  15 B3g  16 B3g  17 B3g                
  5.091   0.129   0.574   0.957   1.216   1.590   1.811   2.538
 18 B3g   1 Au    2 Au    3 Au    4 Au    5 Au    6 Au    7 Au                 
  2.948   3.377   3.447   3.612   3.658   4.058   4.166   4.414
  8 Au    9 Au   10 Au   11 Au   12 Au   13 Au   14 Au   15 Au                 
  4.676   5.164   5.345   0.127   0.431   0.573   0.624   0.956
 16 Au   17 Au   18 Au    2 B1u   3 B1u   4 B1u   5 B1u   6 B1u                
  1.120   1.219   1.587   2.333   2.537   2.795   2.950   2.989
  7 B1u   8 B1u   9 B1u  10 B1u  11 B1u  12 B1u  13 B1u  14 B1u                
  3.229   3.373   3.443   3.612   4.114   4.165   4.421   4.663
 15 B1u  16 B1u  17 B1u  18 B1u  19 B1u  20 B1u  21 B1u  22 B1u                
  4.972   5.357   0.170   0.394   0.417   0.524   0.591   0.750
 23 B1u  24 B1u   5 B2u   6 B2u   7 B2u   8 B2u   9 B2u  10 B2u                
  0.903   1.085   1.310   1.376   1.475   1.508   1.627   2.291
 11 B2u  12 B2u  13 B2u  14 B2u  15 B2u  16 B2u  17 B2u  18 B2u                
  2.465   2.476   2.775   2.933   3.029   3.321   3.380   3.384
 19 B2u  20 B2u  21 B2u  22 B2u  23 B2u  24 B2u  25 B2u  26 B2u                
  3.654   3.700   4.105   4.126   4.323   4.490   4.669   5.038
 27 B2u  28 B2u  29 B2u  30 B2u  31 B2u  32 B2u  33 B2u  34 B2u                
  5.088   5.238   5.515   5.725   6.491  12.915   0.170   0.221
 35 B2u  36 B2u  37 B2u  38 B2u  39 B2u  40 B2u   6 B3u   7 B3u                
  0.419   0.524   0.550   0.593   0.703   0.752   0.904   1.000
  8 B3u   9 B3u  10 B3u  11 B3u  12 B3u  13 B3u  14 B3u  15 B3u                
  1.128   1.310   1.377   1.505   1.613   1.629   1.893   2.227
 16 B3u  17 B3u  18 B3u  19 B3u  20 B3u  21 B3u  22 B3u  23 B3u                
  2.294   2.467   2.773   3.026   3.100   3.324   3.383   3.446
 24 B3u  25 B3u  26 B3u  27 B3u  28 B3u  29 B3u  30 B3u  31 B3u                
  3.658   3.706   3.768   4.109   4.175   4.323   4.351   4.561
 32 B3u  33 B3u  34 B3u  35 B3u  36 B3u  37 B3u  38 B3u  39 B3u                
  4.664   5.047   5.092   5.359   5.513   5.731   6.073   6.494
 40 B3u  41 B3u  42 B3u  43 B3u  44 B3u  45 B3u  46 B3u  47 B3u                
  6.846  12.998  16.168
 48 B3u  49 B3u  50 B3u                                                        

 Beta MOs, Unrestricted
 -- Occupied --                  
-11.236 -11.234 -11.234 -11.235 -11.235 -11.233  -1.148  -0.822
  1 Ag    2 Ag    1 B1g   1 B2u   1 B3u   2 B3u   3 Ag    4 Ag                 
 -0.705  -0.494  -0.819  -0.489  -0.335  -0.336  -0.501  -1.012
  5 Ag    6 Ag    2 B1g   3 B1g   1 B2g   1 B3g   1 B1u   2 B2u                
 -0.617  -0.583  -1.012  -0.639  -0.586
  3 B2u   4 B2u   3 B3u   4 B3u   5 B3u                                        
 -- Virtual --                   
  0.145   0.201   0.359   0.416   0.507   0.589   0.641   0.643
  7 Ag    8 Ag    9 Ag   10 Ag   11 Ag   12 Ag   13 Ag   14 Ag                 
  0.726   1.005   1.028   1.229   1.316   1.508   1.609   1.717
 15 Ag   16 Ag   17 Ag   18 Ag   19 Ag   20 Ag   21 Ag   22 Ag                 
  1.731   2.182   2.376   2.662   2.739   2.901   3.081   3.162
 23 Ag   24 Ag   25 Ag   26 Ag   27 Ag   28 Ag   29 Ag   30 Ag                 
  3.296   3.344   3.409   3.410   3.689   3.907   4.044   4.121
 31 Ag   32 Ag   33 Ag   34 Ag   35 Ag   36 Ag   37 Ag   38 Ag                 
  4.449   4.484   4.533   4.675   4.864   4.876   5.294   5.397
 39 Ag   40 Ag   41 Ag   42 Ag   43 Ag   44 Ag   45 Ag   46 Ag                 
  6.041   6.261   9.322  13.513   0.201   0.359   0.589   0.641
 47 Ag   48 Ag   49 Ag   50 Ag    4 B1g   5 B1g   6 B1g   7 B1g                
  0.643   0.726   0.952   1.028   1.231   1.490   1.507   1.615
  8 B1g   9 B1g  10 B1g  11 B1g  12 B1g  13 B1g  14 B1g  15 B1g                
  1.721   2.085   2.183   2.745   2.910   3.158   3.294   3.403
 16 B1g  17 B1g  18 B1g  19 B1g  20 B1g  21 B1g  22 B1g  23 B1g                
  3.505   3.692   3.903   4.119   4.130   4.418   4.436   4.531
 24 B1g  25 B1g  26 B1g  27 B1g  28 B1g  29 B1g  30 B1g  31 B1g                
  4.674   4.880   5.347   5.395   6.033   6.264   6.365   7.307
 32 B1g  33 B1g  34 B1g  35 B1g  36 B1g  37 B1g  38 B1g  39 B1g                
 13.534   0.330   0.474   0.668   0.858   1.210   1.291   1.509
 40 B1g   2 B2g   3 B2g   4 B2g   5 B2g   6 B2g   7 B2g   8 B2g                
  1.764   2.444   2.844   3.004   3.060   3.229   3.621   3.717
  9 B2g  10 B2g  11 B2g  12 B2g  13 B2g  14 B2g  15 B2g  16 B2g                
  3.919   4.089   4.203   4.499   4.665   5.061   5.100   5.788
 17 B2g  18 B2g  19 B2g  20 B2g  21 B2g  22 B2g  23 B2g  24 B2g                
  0.474   0.844   0.860   1.291   1.509   2.441   2.604   3.004
  2 B3g   3 B3g   4 B3g   5 B3g   6 B3g   7 B3g   8 B3g   9 B3g                
  3.062   3.232   3.459   3.715   3.906   4.094   4.202   4.656
 10 B3g  11 B3g  12 B3g  13 B3g  14 B3g  15 B3g  16 B3g  17 B3g                
  5.091   0.129   0.574   0.957   1.216   1.590   1.811   2.538
 18 B3g   1 Au    2 Au    3 Au    4 Au    5 Au    6 Au    7 Au                 
  2.948   3.377   3.447   3.612   3.658   4.058   4.166   4.414
  8 Au    9 Au   10 Au   11 Au   12 Au   13 Au   14 Au   15 Au                 
  4.676   5.164   5.345   0.127   0.431   0.573   0.624   0.956
 16 Au   17 Au   18 Au    2 B1u   3 B1u   4 B1u   5 B1u   6 B1u                
  1.120   1.219   1.587   2.333   2.537   2.795   2.950   2.989
  7 B1u   8 B1u   9 B1u  10 B1u  11 B1u  12 B1u  13 B1u  14 B1u                
  3.229   3.373   3.443   3.612   4.114   4.165   4.421   4.663
 15 B1u  16 B1u  17 B1u  18 B1u  19 B1u  20 B1u  21 B1u  22 B1u                
  4.972   5.357   0.170   0.394   0.417   0.524   0.591   0.750
 23 B1u  24 B1u   5 B2u   6 B2u   7 B2u   8 B2u   9 B2u  10 B2u                
  0.903   1.085   1.310   1.376   1.475   1.508   1.627   2.291
 11 B2u  12 B2u  13 B2u  14 B2u  15 B2u  16 B2u  17 B2u  18 B2u                
  2.465   2.476   2.775   2.933   3.029   3.321   3.380   3.384
 19 B2u  20 B2u  21 B2u  22 B2u  23 B2u  24 B2u  25 B2u  26 B2u                
  3.654   3.700   4.105   4.126   4.323   4.490   4.669   5.038
 27 B2u  28 B2u  29 B2u  30 B2u  31 B2u  32 B2u  33 B2u  34 B2u                
  5.088   5.238   5.515   5.725   6.491  12.915   0.170   0.221
 35 B2u  36 B2u  37 B2u  38 B2u  39 B2u  40 B2u   6 B3u   7 B3u                
  0.419   0.524   0.550   0.593   0.703   0.752   0.904   1.000
  8 B3u   9 B3u  10 B3u  11 B3u  12 B3u  13 B3u  14 B3u  15 B3u                
  1.128   1.310   1.377   1.505   1.613   1.629   1.893   2.227
 16 B3u  17 B3u  18 B3u  19 B3u  20 B3u  21 B3u  22 B3u  23 B3u                
  2.294   2.467   2.773   3.026   3.100   3.324   3.383   3.446
 24 B3u  25 B3u  26 B3u  27 B3u  28 B3u  29 B3u  30 B3u  31 B3u                
  3.658   3.706   3.768   4.109   4.175   4.323   4.351   4.561
 32 B3u  33 B3u  34 B3u  35 B3u  36 B3u  37 B3u  38 B3u  39 B3u                
  4.664   5.047   5.092   5.359   5.513   5.731   6.073   6.494
 40 B3u  41 B3u  42 B3u  43 B3u  44 B3u  45 B3u  46 B3u  47 B3u                
  6.846  12.998  16.168
 48 B3u  49 B3u  50 B3u                                                        
 --------------------------------------------------------------

          Ground-State Mulliken Net Atomic Charges

     Atom                 Charge (a.u.)    Spin (a.u.)
  --------------------------------------------------------
      1 H                     0.214784       0.001989
      2 C                    -0.089419      -0.025945
      3 C                    -0.089419      -0.025945
      4 H                     0.214784       0.001989
      5 C                     0.016549      -0.472062
      6 H                     0.232721       0.019973
      7 C                    -0.089419      -0.025945
      8 H                     0.214784       0.001989
      9 C                    -0.089419      -0.025945
     10 H                     0.214784       0.001989
     11 C                     0.016549      -0.472062
     12 H                     0.232721       0.019973
  --------------------------------------------------------
  Sum of atomic charges =     1.000000
  Sum of spin   charges =    -1.000000

 -----------------------------------------------------------------
                    Cartesian Multipole Moments
 -----------------------------------------------------------------
    Charge (ESU x 10^10)
                 4.8032
    Dipole Moment (Debye)
         X       0.0000      Y      -0.0000      Z      -0.0000
       Tot       0.0000
    Quadrupole Moments (Debye-Ang)
        XX     -18.3336     XY      -0.0000     YY     -21.9506
        XZ       0.0000     YZ       0.0000     ZZ     -35.3881
    Octopole Moments (Debye-Ang^2)
       XXX       0.0000    XXY       0.0000    XYY       0.0000
       YYY      -0.0000    XXZ       0.0000    XYZ       0.0000
       YYZ      -0.0000    XZZ       0.0000    YZZ      -0.0000
       ZZZ      -0.0000
    Hexadecapole Moments (Debye-Ang^3)
      XXXX    -198.8284   XXXY      -0.0000   XXYY     -70.1738
      XYYY       0.0000   YYYY    -213.3635   XXXZ       0.0000
      XXYZ       0.0000   XYYZ       0.0000   YYYZ       0.0000
      XXZZ     -53.1424   XYZZ      -0.0000   YYZZ     -56.5248
      XZZZ       0.0000   YZZZ      -0.0000   ZZZZ     -37.2909
 -----------------------------------------------------------------
 DrvMan completing analytic gradient of the correlated energy
 Correlated dipole moment
            1
    1   0.0000000
    2  -0.0000000
    3  -0.0000000
 Energy read as -231.411423254
 Full Analytical Gradient: (in a.u., or Hartree/Bohr)
             1             2             3             4             5
    1    0.00563610    0.02218747   -0.02218747   -0.00563610    0.01525697
    2   -0.00836485    0.03591522    0.03591522   -0.00836485   -0.00000000
    3   -0.00000000   -0.00000000    0.00000000    0.00000000   -0.00000000
             6             7             8             9            10
    1   -0.00295463   -0.02218747   -0.00563610    0.02218747    0.00563610
    2   -0.00000000   -0.03591522    0.00836485   -0.03591522    0.00836485
    3    0.00000000    0.00000000   -0.00000000   -0.00000000   -0.00000000
            11            12
    1   -0.01525697    0.00295463
    2    0.00000000    0.00000000
    3    0.00000000   -0.00000000
 Gradient time:  CPU 2.60 s  wall 3.63 s
 Geometry Optimization Parameters
   NAtoms,    NIC,     NZ,  NCons,   NDum,   NFix, NCnnct, MaxDiis
       12      78       0       0       0       0       0       0


** GEOMETRY OPTIMIZATION IN DELOCALIZED INTERNAL COORDINATES **
   Searching for a Minimum

   Optimization Cycle:   1

                       Coordinates (Angstroms)
     ATOM                X               Y               Z
      1  H         1.2429149000   -2.1527918000    0.0000000000
      2  C         0.6955675000   -1.2047582000    0.0000000000
      3  C        -0.6955675000   -1.2047582000    0.0000000000
      4  H        -1.2429149000   -2.1527918000    0.0000000000
      5  C        -1.4000000000    0.0000000000    0.0000000000
      6  H        -2.4858298000    0.0000000000    0.0000000000
      7  C        -0.6955675000    1.2047582000    0.0000000000
      8  H        -1.2429149000    2.1527918000    0.0000000000
      9  C         0.6955675000    1.2047582000    0.0000000000
     10  H         1.2429149000    2.1527918000    0.0000000000
     11  C         1.4000000000    0.0000000000    0.0000000000
     12  H         2.4858298000    0.0000000000    0.0000000000
   Point Group: d2h   Number of degrees of freedom:     6


   Energy is   -231.411423254


 Attempting to Generate Delocalized Internal Coordinates

  6 Hessian modes will be used to form the next step
  Hessian Eigenvalues:
     0.160000    0.220000    0.342757    0.352990    0.463595    0.471218

 Minimum Search - Taking Simple RFO Step
 Searching for Lamda that Minimizes Along All modes
 Value Taken    Lamda =  -0.01110940
 Step Taken.  Stepsize is  0.168512

                             Maximum     Tolerance    Cnvgd?
         Gradient           0.039851      0.000300      NO
         Displacement       0.103730      0.001200      NO
         Energy change     *********      0.000001      NO


 New Cartesian Coordinates Obtained by Inverse Iteration

 Displacement from previous Coordinates is:  0.214132
 ----------------------------------------------------------------
             Standard Nuclear Orientation (Angstroms)
    I     Atom           X                Y                Z
 ----------------------------------------------------------------
    1      H       1.2294094544    -2.1771105583     0.0000000000
    2      C       0.6836787505    -1.2455435455     0.0000000000
    3      C      -0.6836787505    -1.2455435455     0.0000000000
    4      H      -1.2294094544    -2.1771105583     0.0000000000
    5      C      -1.3771110554     0.0000000000     0.0000000000
    6      H      -2.4586466409     0.0000000000     0.0000000000
    7      C      -0.6836787505     1.2455435455     0.0000000000
    8      H      -1.2294094544     2.1771105583     0.0000000000
    9      C       0.6836787505     1.2455435455     0.0000000000
   10      H       1.2294094544     2.1771105583     0.0000000000
   11      C       1.3771110554     0.0000000000     0.0000000000
   12      H       2.4586466409     0.0000000000     0.0000000000
 ----------------------------------------------------------------
 Molecular Point Group                 D2h   NOp =  8
 Largest Abelian Subgroup              D2h   NOp =  8
 Nuclear Repulsion Energy =   202.2532863879 hartrees
 There are       21 alpha and       21 beta electrons
 Applying Cartesian multipole field
    Component          Value
    ---------          -----
     (2,0,0)        1.00000E-11
     (0,2,0)        2.00000E-11
     (0,0,2)       -3.00000E-10
 Nucleus-field energy     =     0.0000000059 hartrees
 Requested basis set is cc-pVTZ
 There are 96 shells and 264 basis functions
 A cutoff of  1.0D-14 yielded   4498 shell pairs
 There are     34350 function pairs (     44553 Cartesian)
 Smallest overlap matrix eigenvalue = 4.05E-05
 Guess MOs from SCF MO coefficient file

 -----------------------------------------------------------------------
  General SCF calculation program by
  Eric Jon Sundstrom, Paul Horn, Yuezhi Mao, Dmitri Zuev, Alec White,
  David Stuck, Shaama M.S., Shane Yost, Joonho Lee, David Small,
  Daniel Levine, Susi Lehtola, Hugh Burton, Evgeny Epifanovsky
 -----------------------------------------------------------------------
 Hartree-Fock
 using 8 threads for integral computing
 -------------------------------------------------------
 OpenMP Integral computing Module                
 Release: version 2.0, May 2017, Q-Chem Inc. Pleasanton 
 -------------------------------------------------------
 A unrestricted SCF calculation will be
 performed using DIIS
 SCF converges when DIIS error is below 1.0e-08
 ---------------------------------------
  Cycle       Energy         DIIS error
 ---------------------------------------
    1    -230.7701852779      2.38e-04  
    2    -230.7721687898      6.97e-05  
    3    -230.7723381241      2.83e-05  
    4    -230.7723721515      5.03e-06  
    5    -230.7723736677      7.56e-07  
    6    -230.7723737149      2.64e-07  
    7    -230.7723737184      6.29e-08  
    8    -230.7723737188      1.69e-08  
    9    -230.7723737188      3.70e-09  Convergence criterion met
 ---------------------------------------
 SCF time:   CPU 286.86s  wall 36.00s 
<S^2> =          0.000000000
 SCF   energy in the final basis set =     -230.7723737188
 Total energy in the final basis set =     -230.7723737188


 ------------------------------------------------------------------------------

   CCMAN2: suite of methods based on coupled cluster
           and equation of motion theories.

   Components:
   * libvmm-1.3-trunk
     by Evgeny Epifanovsky, Ilya Kaliman.
   * libtensor-2.5-trunk
     by Evgeny Epifanovsky, Michael Wormit, Dmitry Zuev, Sam Manzer, 
        Ilya Kaliman.
   * libcc-2.5-trunk
     by Evgeny Epifanovsky, Arik Landau, Tomasz Kus, Kirill Khistyaev, 
        Dmitry Zuev, Prashant Manohar, Xintian Feng, Anna Krylov, 
        Matthew Goldey, Alec White, Thomas Jagau, Kaushik Nanda, 
        Anastasia Gunina, Alexander Kunitsa, Joonho Lee.

   CCMAN original authors:
   Anna I. Krylov, C. David Sherrill, Steven R. Gwaltney,
   Edward F. C. Byrd (2000)
   Sergey V. Levchenko, Lyudmila V. Slipchenko, Tao Wang,
   Ana-Maria C. Cristian (2003)
   Piotr A. Pieniazek, C. Melania Oana, Evgeny Epifanovsky (2007)
   Prashant Manohar (2009)

 ------------------------------------------------------------------------------


 Allocating and initializing 80000MB of RAM...
 Calculation will run on 8 cores.


 Alpha MOs, Unrestricted
 -- Occupied --                  
-11.240 -11.240 -11.236 -11.235 -11.234 -11.234  -1.142  -1.022
  1 B3u   1 Ag    1 B2u   2 Ag    1 B1g   2 B3u   3 Ag    2 B2u                
 -0.997  -0.828  -0.814  -0.705  -0.647  -0.612  -0.598  -0.573
  3 B3u   4 Ag    2 B1g   5 Ag    4 B3u   3 B2u   4 B2u   5 B3u                
 -0.497  -0.496  -0.491  -0.344  -0.322
  6 Ag    1 B1u   3 B1g   1 B3g   1 B2g                                        
 -- Virtual --                   
  0.119   0.132   0.147   0.169   0.171   0.200   0.201   0.221
  2 B1u   1 Au    7 Ag    5 B2u   6 B3u   8 Ag    4 B1g   7 B3u                
  0.325   0.355   0.360   0.395   0.413   0.419   0.419   0.433
  2 B2g   9 Ag    5 B1g   6 B2u   7 B2u   8 B3u  10 Ag    3 B1u                
  0.473   0.480   0.508   0.517   0.524   0.551   0.571   0.572
  2 B3g   3 B2g  11 Ag    8 B2u   9 B3u  10 B3u  12 Ag    4 B1u                
  0.575   0.594   0.595   0.601   0.625   0.637   0.637   0.644
  2 Au    9 B2u   6 B1g  11 B3u   5 B1u  13 Ag    7 B1g  14 Ag                 
  0.646   0.665   0.697   0.714   0.735   0.740   0.750   0.834
  8 B1g   4 B2g  12 B3u  15 Ag    9 B1g  10 B2u  13 B3u   3 B3g                
  0.858   0.864   0.895   0.908   0.938   0.948   0.959   0.985
  4 B3g   5 B2g  11 B2u  14 B3u  10 B1g   3 Au    6 B1u  15 B3u                
  1.002   1.027   1.034   1.084   1.122   1.133   1.206   1.209
 16 Ag   11 B1g  17 Ag   12 B2u   7 B1u  16 B3u   8 B1u   6 B2g                
  1.215   1.222   1.238   1.285   1.297   1.307   1.308   1.311
 18 Ag    4 Au   12 B1g   5 B3g   7 B2g  19 Ag   17 B3u  13 B2u                
  1.375   1.386   1.466   1.486   1.498   1.502   1.503   1.505
 14 B2u  18 B3u  15 B2u  13 B1g  16 B2u   8 B2g   6 B3g  20 Ag                 
  1.510   1.515   1.580   1.594   1.596   1.609   1.613   1.620
 19 B3u  14 B1g   5 Au    9 B1u  21 Ag   15 B1g  20 B3u  21 B3u                
  1.639   1.719   1.731   1.741   1.767   1.803   1.889   2.082
 17 B2u  22 Ag   16 B1g  23 Ag    9 B2g   6 Au   22 B3u  17 B1g                
  2.181   2.183   2.204   2.278   2.298   2.332   2.372   2.432
 18 B1g  24 Ag   23 B3u  18 B2u  24 B3u  10 B1u  25 Ag   19 B2u                
  2.436   2.449   2.470   2.478   2.526   2.537   2.602   2.663
  7 B3g  10 B2g  20 B2u  25 B3u  11 B1u   7 Au    8 B3g  26 Ag                 
  2.733   2.742   2.767   2.785   2.790   2.829   2.876   2.910
 27 Ag   19 B1g  21 B2u  26 B3u  12 B1u  11 B2g  20 B1g  28 Ag                 
  2.924   2.938   2.961   2.992   2.996   3.002   3.033   3.037
 22 B2u  13 B1u   8 Au   12 B2g  14 B1u   9 B3g  27 B3u  23 B2u                
  3.056   3.073   3.088   3.105   3.132   3.166   3.217   3.228
 10 B3g  13 B2g  29 Ag   28 B3u  30 Ag   21 B1g  15 B1u  11 B3g                
  3.236   3.288   3.301   3.303   3.308   3.339   3.360   3.363
 14 B2g  31 Ag   22 B1g  24 B2u  29 B3u  32 Ag   25 B2u   9 Au                 
  3.382   3.386   3.389   3.390   3.397   3.430   3.442   3.451
 16 B1u  23 B1g  30 B3u  26 B2u  33 Ag   34 Ag   10 Au   17 B1u                
  3.458   3.459   3.502   3.602   3.613   3.616   3.654   3.654
 12 B3g  31 B3u  24 B1g  18 B1u  11 Au   15 B2g  12 Au   27 B2u                
  3.667   3.683   3.686   3.700   3.705   3.710   3.715   3.764
 32 B3u  35 Ag   25 B1g  16 B2g  28 B2u  33 B3u  13 B3g  34 B3u                
  3.880   3.903   3.906   3.917   4.052   4.053   4.060   4.077
 36 Ag   17 B2g  26 B1g  14 B3g  37 Ag   13 Au   15 B3g  29 B2u                
  4.094   4.099   4.101   4.103   4.112   4.119   4.144   4.150
 18 B2g  35 B3u  27 B1g  38 Ag   30 B2u  19 B1u  28 B1g  36 B3u                
  4.157   4.167   4.201   4.212   4.305   4.318   4.382   4.389
 20 B1u  14 Au   16 B3g  19 B2g  37 B3u  31 B2u  38 B3u  21 B1u                
  4.408   4.438   4.448   4.462   4.487   4.493   4.495   4.524
 29 B1g  39 Ag   15 Au   30 B1g  40 Ag   32 B2u  20 B2g  31 B1g                
  4.542   4.564   4.618   4.626   4.634   4.663   4.672   4.695
 39 B3u  41 Ag   22 B1u  17 B3g  40 B3u  16 Au   32 B1g  42 Ag                 
  4.695   4.696   4.852   4.866   4.910   5.006   5.030   5.039
 21 B2g  33 B2u  43 Ag   33 B1g  44 Ag   23 B1u  22 B2g  34 B2u                
  5.066   5.087   5.105   5.112   5.129   5.138   5.252   5.326
 41 B3u  35 B2u  18 B3g  42 B3u  23 B2g  17 Au   36 B2u  45 Ag                 
  5.347   5.353   5.360   5.389   5.397   5.440   5.508   5.539
 34 B1g  43 B3u  24 B1u  18 Au   35 B1g  46 Ag   37 B2u  44 B3u                
  5.725   5.727   5.793   5.980   6.077   6.095   6.233   6.253
 38 B2u  45 B3u  24 B2g  47 Ag   46 B3u  36 B1g  48 Ag   37 B1g                
  6.321   6.470   6.496   6.817   7.276   9.455  12.657  13.012
 38 B1g  47 B3u  39 B2u  48 B3u  39 B1g  49 Ag   40 B2u  49 B3u                
 13.119  13.740  15.964
 50 Ag   40 B1g  50 B3u                                                        

 Beta MOs, Unrestricted
 -- Occupied --                  
-11.240 -11.240 -11.236 -11.235 -11.234 -11.234  -1.142  -1.022
  1 B3u   1 Ag    1 B2u   2 Ag    1 B1g   2 B3u   3 Ag    2 B2u                
 -0.997  -0.828  -0.814  -0.705  -0.647  -0.612  -0.598  -0.573
  3 B3u   4 Ag    2 B1g   5 Ag    4 B3u   3 B2u   4 B2u   5 B3u                
 -0.497  -0.496  -0.491  -0.344  -0.322
  6 Ag    1 B1u   3 B1g   1 B3g   1 B2g                                        
 -- Virtual --                   
  0.119   0.132   0.147   0.169   0.171   0.200   0.201   0.221
  2 B1u   1 Au    7 Ag    5 B2u   6 B3u   8 Ag    4 B1g   7 B3u                
  0.325   0.355   0.360   0.395   0.413   0.419   0.419   0.433
  2 B2g   9 Ag    5 B1g   6 B2u   7 B2u   8 B3u  10 Ag    3 B1u                
  0.473   0.480   0.508   0.517   0.524   0.551   0.571   0.572
  2 B3g   3 B2g  11 Ag    8 B2u   9 B3u  10 B3u  12 Ag    4 B1u                
  0.575   0.594   0.595   0.601   0.625   0.637   0.637   0.644
  2 Au    9 B2u   6 B1g  11 B3u   5 B1u  13 Ag    7 B1g  14 Ag                 
  0.646   0.665   0.697   0.714   0.735   0.740   0.750   0.834
  8 B1g   4 B2g  12 B3u  15 Ag    9 B1g  10 B2u  13 B3u   3 B3g                
  0.858   0.864   0.895   0.908   0.938   0.948   0.959   0.985
  4 B3g   5 B2g  11 B2u  14 B3u  10 B1g   3 Au    6 B1u  15 B3u                
  1.002   1.027   1.034   1.084   1.122   1.133   1.206   1.209
 16 Ag   11 B1g  17 Ag   12 B2u   7 B1u  16 B3u   8 B1u   6 B2g                
  1.215   1.222   1.238   1.285   1.297   1.307   1.308   1.311
 18 Ag    4 Au   12 B1g   5 B3g   7 B2g  19 Ag   17 B3u  13 B2u                
  1.375   1.386   1.466   1.486   1.498   1.502   1.503   1.505
 14 B2u  18 B3u  15 B2u  13 B1g  16 B2u   8 B2g   6 B3g  20 Ag                 
  1.510   1.515   1.580   1.594   1.596   1.609   1.613   1.620
 19 B3u  14 B1g   5 Au    9 B1u  21 Ag   15 B1g  20 B3u  21 B3u                
  1.639   1.719   1.731   1.741   1.767   1.803   1.889   2.082
 17 B2u  22 Ag   16 B1g  23 Ag    9 B2g   6 Au   22 B3u  17 B1g                
  2.181   2.183   2.204   2.278   2.298   2.332   2.372   2.432
 18 B1g  24 Ag   23 B3u  18 B2u  24 B3u  10 B1u  25 Ag   19 B2u                
  2.436   2.449   2.470   2.478   2.526   2.537   2.602   2.663
  7 B3g  10 B2g  20 B2u  25 B3u  11 B1u   7 Au    8 B3g  26 Ag                 
  2.733   2.742   2.767   2.785   2.790   2.829   2.876   2.910
 27 Ag   19 B1g  21 B2u  26 B3u  12 B1u  11 B2g  20 B1g  28 Ag                 
  2.924   2.938   2.961   2.992   2.996   3.002   3.033   3.037
 22 B2u  13 B1u   8 Au   12 B2g  14 B1u   9 B3g  27 B3u  23 B2u                
  3.056   3.073   3.088   3.105   3.132   3.166   3.217   3.228
 10 B3g  13 B2g  29 Ag   28 B3u  30 Ag   21 B1g  15 B1u  11 B3g                
  3.236   3.288   3.301   3.303   3.308   3.339   3.360   3.363
 14 B2g  31 Ag   22 B1g  24 B2u  29 B3u  32 Ag   25 B2u   9 Au                 
  3.382   3.386   3.389   3.390   3.397   3.430   3.442   3.451
 16 B1u  23 B1g  30 B3u  26 B2u  33 Ag   34 Ag   10 Au   17 B1u                
  3.458   3.459   3.502   3.602   3.613   3.616   3.654   3.654
 12 B3g  31 B3u  24 B1g  18 B1u  11 Au   15 B2g  12 Au   27 B2u                
  3.667   3.683   3.686   3.700   3.705   3.710   3.715   3.764
 32 B3u  35 Ag   25 B1g  16 B2g  28 B2u  33 B3u  13 B3g  34 B3u                
  3.880   3.903   3.906   3.917   4.052   4.053   4.060   4.077
 36 Ag   17 B2g  26 B1g  14 B3g  37 Ag   13 Au   15 B3g  29 B2u                
  4.094   4.099   4.101   4.103   4.112   4.119   4.144   4.150
 18 B2g  35 B3u  27 B1g  38 Ag   30 B2u  19 B1u  28 B1g  36 B3u                
  4.157   4.167   4.201   4.212   4.305   4.318   4.382   4.389
 20 B1u  14 Au   16 B3g  19 B2g  37 B3u  31 B2u  38 B3u  21 B1u                
  4.408   4.438   4.448   4.462   4.487   4.493   4.495   4.524
 29 B1g  39 Ag   15 Au   30 B1g  40 Ag   32 B2u  20 B2g  31 B1g                
  4.542   4.564   4.618   4.626   4.634   4.663   4.672   4.695
 39 B3u  41 Ag   22 B1u  17 B3g  40 B3u  16 Au   32 B1g  42 Ag                 
  4.695   4.696   4.852   4.866   4.910   5.006   5.030   5.039
 21 B2g  33 B2u  43 Ag   33 B1g  44 Ag   23 B1u  22 B2g  34 B2u                
  5.066   5.087   5.105   5.112   5.129   5.138   5.252   5.326
 41 B3u  35 B2u  18 B3g  42 B3u  23 B2g  17 Au   36 B2u  45 Ag                 
  5.347   5.353   5.360   5.389   5.397   5.440   5.508   5.539
 34 B1g  43 B3u  24 B1u  18 Au   35 B1g  46 Ag   37 B2u  44 B3u                
  5.725   5.727   5.793   5.980   6.077   6.095   6.233   6.253
 38 B2u  45 B3u  24 B2g  47 Ag   46 B3u  36 B1g  48 Ag   37 B1g                
  6.321   6.470   6.496   6.817   7.276   9.455  12.657  13.012
 38 B1g  47 B3u  39 B2u  48 B3u  39 B1g  49 Ag   40 B2u  49 B3u                
 13.119  13.740  15.964
 50 Ag   40 B1g  50 B3u                                                        

 Occupation and symmetry of molecular orbitals

 Point group: D2h (8 irreducible representations).

                           Ag   B1g  B2g  B3g  Au   B1u  B2u  B3u   All 
 ------------------------------------------------------------------------
 All molecular orbitals:
  - Alpha                  50   40   24   18   18   24   40   50    264 
  - Beta                   50   40   24   18   18   24   40   50    264 
 ------------------------------------------------------------------------
 Alpha orbitals:
  - Frozen occupied        2    1    0    0    0    0    1    2     6   
  - Active occupied        4    2    1    1    0    1    3    3     15  
  - Active virtual         44   37   23   17   18   23   36   45    243 
  - Frozen virtual         0    0    0    0    0    0    0    0     0   
 ------------------------------------------------------------------------
 Beta orbitals:
  - Frozen occupied        2    1    0    0    0    0    1    2     6   
  - Active occupied        4    2    1    1    0    1    3    3     15  
  - Active virtual         44   37   23   17   18   23   36   45    243 
  - Frozen virtual         0    0    0    0    0    0    0    0     0   
 ------------------------------------------------------------------------

 Import integrals:   CPU 0.00 s  wall 0.00 s

 Import integrals:   CPU 1590.58 s  wall 240.61 s

 MP2 amplitudes:   CPU 17.00 s  wall 4.89 s

Running a single precision version
I will use integrals, stored in single precision format
           CCSD T amplitudes will be solved using DIIS.

           Start     Size      MaxIter   EConv     TConv     
           3         7         100       1.00e-06  1.00e-04  
 ------------------------------------------------------------------------------
           Energy (a.u.)   Ediff      Tdiff       Comment
 ------------------------------------------------------------------------------
          -231.72427062                           
     1    -231.71730997   6.96e-03   9.52e-01     
     2    -231.74568617   2.84e-02   1.29e-01     
     3    -231.74509396   5.92e-04   4.62e-02     
     4    -231.74761399   2.52e-03   1.30e-02     Switched to DIIS steps.
     5    -231.74847244   8.58e-04   1.12e-02     
     6    -231.74848044   8.00e-06   2.01e-03     
     7    -231.74846937   1.11e-05   7.06e-04     
     8    -231.74846967   3.01e-07   1.42e-04     
     9    -231.74846859   1.08e-06   3.90e-05     
    10    -231.74846846   1.22e-07   9.49e-06     
 ------------------------------------------------------------------------------
          -231.74846846                           CCSD T converged.

End of single precision
No iterations in double precision will be done
 SCF energy                 = -230.77237372
 MP2 energy                 = -231.72426976
 CCSD correlation energy     =   -0.97609486
 CCSD total energy           = -231.74846858

 CCSD  T1^2 = 0.0064  T2^2 = 0.3578  Leading amplitudes:

 Amplitude    Orbitals with energies
 -0.0242       1 (B2g) A                 ->    3 (B2g) A                  
              -0.3220                          0.4797                     
 -0.0242       1 (B2g) B                 ->    3 (B2g) B                  
              -0.3220                          0.4797                     
 -0.0210       1 (B3g) A                 ->    2 (B3g) A                  
              -0.3443                          0.4726                     
 -0.0210       1 (B3g) B                 ->    2 (B3g) B                  
              -0.3443                          0.4726                     

 Amplitude    Orbitals with energies
 -0.0893       1 (B2g) A     1 (B2g) B   ->    2 (B1u) A     2 (B1u) B    
              -0.3220       -0.3220            0.1189        0.1189       
  0.0893       1 (B2g) A     1 (B2g) B   ->    2 (B1u) B     2 (B1u) A    
              -0.3220       -0.3220            0.1189        0.1189       
  0.0893       1 (B2g) B     1 (B2g) A   ->    2 (B1u) A     2 (B1u) B    
              -0.3220       -0.3220            0.1189        0.1189       
 -0.0893       1 (B2g) B     1 (B2g) A   ->    2 (B1u) B     2 (B1u) A    
              -0.3220       -0.3220            0.1189        0.1189       

 Computing CCSD intemediates for later calculations in single precision
 Finished.

 CCSD calculation:   CPU 1130.70 s  wall 195.61 s

 EOMEE-CCSD calculation:   CPU 34.14 s  wall 10.45 s

        Solving for EOMIP-CCSD B2g transitions.

Running a single precision version
      EOMIP-CCSD/MP2 right amplitudes will be solved using Davidson.
      Amplitudes will be solved using standard  algorithm
      Roots     MaxVec    MaxIter   Precond   Conv      Thresh    Shift    
      1         60        60        1         1.00e-06  1.00e-06  0.00e+00  
 ------------------------------------------------------------------------------
      Iter ConvRoots NVecs ResNorm Current eigenvalues (eV)
 ------------------------------------------------------------------------------
      0    0      1     9.02e-02   11.1081   
      1    0      2     2.79e-02   9.4867   
      2    0      3     7.41e-04   9.0534   
      3    0      4     4.32e-05   9.0335   
      4    0      5     1.61e-06   9.0323   
      5    1      6     7.05e-08   9.0323*  

     Davidson procedure converged

 EOMIP transition 1/B2g
 Total energy = -231.41653918 a.u.  Excitation energy = 9.0323 eV.
 R1^2 = 0.9432  R2^2 = 0.0568  Res^2 = 7.05e-08
 Conv-d = yes

 Amplitude    Transitions between orbitals
  0.9712       1 (B2g) A                 ->    infty        

              Summary of significant orbitals:

               Number  Type             Irrep      Energy
               21      Occ  Alpha       1 (B2g)     -0.3220


Running a single precision version
      EOMIP-CCSD/MP2 left amplitudes will be solved using Davidson.
      Amplitudes will be solved using MOM  algorithm
      Roots     MaxVec    MaxIter   Precond   Conv      Thresh    Shift    
      1         60        60        1         1.00e-06  1.00e-06  0.00e+00  
 ------------------------------------------------------------------------------
      Iter ConvRoots NVecs ResNorm Current eigenvalues (eV)
 ------------------------------------------------------------------------------
      0    0      1     2.87e-03   9.0323   
      1    0      2     9.19e-04   9.0323   
      2    0      3     4.72e-05   9.0323   
      3    0      4     2.88e-06   9.0323   
      4    1      5     1.09e-07   9.0323*  

     Davidson procedure converged

Running a double precision version
           EOM amplitude response will be solved using DIIS.
           Start     Size      MaxIter   EConv     ZConv     
           3         7         100       1.00e-06  1.00e-06  
 ------------------------------------------------------------------------------
            Enorm      Zdiff       Comment
 ------------------------------------------------------------------------------
     1     8.70e-02   5.23e-02     
     2     3.03e-02   1.91e-02     
     3     1.46e-02   7.09e-03     
     4     4.09e-03   5.60e-03     Switched to DIIS steps.
     5     1.84e-03   9.08e-04     
     6     5.98e-04   3.50e-04     
     7     1.81e-04   5.29e-05     
     8     6.82e-05   8.39e-06     
     9     2.15e-05   2.26e-06     
    10     7.88e-06   1.50e-07     
    11     2.14e-06   2.82e-07     
    12     7.51e-07   5.01e-08     
 ------------------------------------------------------------------------------
                                   Amplitude response converged.

           Orbital response amplitudes will be solved using DIIS.
           Start     Size      MaxIter   EConv     LConv     
           3         7         100       1.00e-06  1.00e-06  
 ------------------------------------------------------------------------------
            Enorm      Ldiff       Comment
 ------------------------------------------------------------------------------
     1     9.38e-02   1.93e-03     
     2     5.72e-02   1.25e-02     
     3     5.12e-02   2.04e-02     
     4     7.04e-03   1.08e-02     Switched to DIIS steps.
     5     4.60e-03   4.14e-03     
     6     1.49e-03   3.09e-03     
     7     3.84e-04   9.16e-04     
     8     1.27e-04   2.42e-04     
     9     2.80e-05   6.88e-05     
    10     6.96e-06   5.14e-06     
    11     2.57e-06   8.81e-08     
    12     7.19e-07   2.94e-07     
 ------------------------------------------------------------------------------
                                   Orbital response converged.

 EOMIP-CCSD calculation:   CPU 1971.71 s  wall 1618.25 s

 Transferring MO TPDM to AO TPDM
 Transferring g2_o1o1o1o1
 Transferring g2_o1o1o1v1
 Transferring g2_o1o1v1v1
 Transferring g2_o1v1o1v1
 Transferring g2_o1v1v1v1
 Transferring g2_v1v1v1v1
 Adding separable TPDM
 Computing TPDM gradient
 --------------------------------------------------------
 2e gradient
  Atom          X               Y               Z
 --------------------------------------------------------
    1         -2.011561        3.700823       -0.000000  
    2         -4.957690        6.073654       -0.000000  
    3          4.957690        6.073654        0.000000  
    4          2.011561        3.700823        0.000000  
    5          6.914130       -0.000000       -0.000000  
    6          4.289690       -0.000000       -0.000000  
    7          4.957690       -6.073654        0.000000  
    8          2.011561       -3.700823        0.000000  
    9         -4.957690       -6.073654       -0.000000  
   10         -2.011561       -3.700823       -0.000000  
   11         -6.914130        0.000000        0.000000  
   12         -4.289690        0.000000        0.000000  
 --------------------------------------------------------
 --------------------------------------------------------
 Final gradient
  Atom          X               Y               Z
 --------------------------------------------------------
    1         -2.011561        3.700823       -0.000000  
    2         -4.957690        6.073654       -0.000000  
    3          4.957690        6.073654        0.000000  
    4          2.011561        3.700823        0.000000  
    5          6.914130       -0.000000       -0.000000  
    6          4.289690       -0.000000       -0.000000  
    7          4.957690       -6.073654        0.000000  
    8          2.011561       -3.700823        0.000000  
    9         -4.957690       -6.073654       -0.000000  
   10         -2.011561       -3.700823       -0.000000  
   11         -6.914130        0.000000        0.000000  
   12         -4.289690        0.000000        0.000000  
 --------------------------------------------------------
 Analytic gradient from two-electron contribution:   CPU 116416.84 s  wall 15846.67 s

 Total ccman2 time:   CPU 121217.36 s  wall 17928.91 s


 --------------------------------------------------------------
             Orbital Energies (a.u.) and Symmetries
 --------------------------------------------------------------

 Alpha MOs, Unrestricted
 -- Occupied --                  
-11.240 -11.235 -11.234 -11.236 -11.240 -11.234  -1.142  -0.828
  1 Ag    2 Ag    1 B1g   1 B2u   1 B3u   2 B3u   3 Ag    4 Ag                 
 -0.705  -0.497  -0.814  -0.491  -0.322  -0.344  -0.496  -1.022
  5 Ag    6 Ag    2 B1g   3 B1g   1 B2g   1 B3g   1 B1u   2 B2u                
 -0.612  -0.598  -0.997  -0.647  -0.573
  3 B2u   4 B2u   3 B3u   4 B3u   5 B3u                                        
 -- Virtual --                   
  0.147   0.200   0.355   0.419   0.508   0.571   0.637   0.644
  7 Ag    8 Ag    9 Ag   10 Ag   11 Ag   12 Ag   13 Ag   14 Ag                 
  0.714   1.002   1.034   1.215   1.307   1.505   1.596   1.719
 15 Ag   16 Ag   17 Ag   18 Ag   19 Ag   20 Ag   21 Ag   22 Ag                 
  1.741   2.183   2.372   2.663   2.733   2.910   3.088   3.132
 23 Ag   24 Ag   25 Ag   26 Ag   27 Ag   28 Ag   29 Ag   30 Ag                 
  3.288   3.339   3.397   3.430   3.683   3.880   4.052   4.103
 31 Ag   32 Ag   33 Ag   34 Ag   35 Ag   36 Ag   37 Ag   38 Ag                 
  4.438   4.487   4.564   4.695   4.852   4.910   5.326   5.440
 39 Ag   40 Ag   41 Ag   42 Ag   43 Ag   44 Ag   45 Ag   46 Ag                 
  5.980   6.233   9.455  13.119   0.201   0.360   0.595   0.637
 47 Ag   48 Ag   49 Ag   50 Ag    4 B1g   5 B1g   6 B1g   7 B1g                
  0.646   0.735   0.938   1.027   1.238   1.486   1.515   1.609
  8 B1g   9 B1g  10 B1g  11 B1g  12 B1g  13 B1g  14 B1g  15 B1g                
  1.731   2.082   2.181   2.742   2.876   3.166   3.301   3.386
 16 B1g  17 B1g  18 B1g  19 B1g  20 B1g  21 B1g  22 B1g  23 B1g                
  3.502   3.686   3.906   4.101   4.144   4.408   4.462   4.524
 24 B1g  25 B1g  26 B1g  27 B1g  28 B1g  29 B1g  30 B1g  31 B1g                
  4.672   4.866   5.347   5.397   6.095   6.253   6.321   7.276
 32 B1g  33 B1g  34 B1g  35 B1g  36 B1g  37 B1g  38 B1g  39 B1g                
 13.740   0.325   0.480   0.665   0.864   1.209   1.297   1.502
 40 B1g   2 B2g   3 B2g   4 B2g   5 B2g   6 B2g   7 B2g   8 B2g                
  1.767   2.449   2.829   2.992   3.073   3.236   3.616   3.700
  9 B2g  10 B2g  11 B2g  12 B2g  13 B2g  14 B2g  15 B2g  16 B2g                
  3.903   4.094   4.212   4.495   4.695   5.030   5.129   5.793
 17 B2g  18 B2g  19 B2g  20 B2g  21 B2g  22 B2g  23 B2g  24 B2g                
  0.473   0.834   0.858   1.285   1.503   2.436   2.602   3.002
  2 B3g   3 B3g   4 B3g   5 B3g   6 B3g   7 B3g   8 B3g   9 B3g                
  3.056   3.228   3.458   3.715   3.917   4.060   4.201   4.626
 10 B3g  11 B3g  12 B3g  13 B3g  14 B3g  15 B3g  16 B3g  17 B3g                
  5.105   0.132   0.575   0.948   1.222   1.580   1.803   2.537
 18 B3g   1 Au    2 Au    3 Au    4 Au    5 Au    6 Au    7 Au                 
  2.961   3.363   3.442   3.613   3.654   4.053   4.167   4.448
  8 Au    9 Au   10 Au   11 Au   12 Au   13 Au   14 Au   15 Au                 
  4.663   5.138   5.389   0.119   0.433   0.572   0.625   0.959
 16 Au   17 Au   18 Au    2 B1u   3 B1u   4 B1u   5 B1u   6 B1u                
  1.122   1.206   1.594   2.332   2.526   2.790   2.938   2.996
  7 B1u   8 B1u   9 B1u  10 B1u  11 B1u  12 B1u  13 B1u  14 B1u                
  3.217   3.382   3.451   3.602   4.119   4.157   4.389   4.618
 15 B1u  16 B1u  17 B1u  18 B1u  19 B1u  20 B1u  21 B1u  22 B1u                
  5.006   5.360   0.169   0.395   0.413   0.517   0.594   0.740
 23 B1u  24 B1u   5 B2u   6 B2u   7 B2u   8 B2u   9 B2u  10 B2u                
  0.895   1.084   1.311   1.375   1.466   1.498   1.639   2.278
 11 B2u  12 B2u  13 B2u  14 B2u  15 B2u  16 B2u  17 B2u  18 B2u                
  2.432   2.470   2.767   2.924   3.037   3.303   3.360   3.390
 19 B2u  20 B2u  21 B2u  22 B2u  23 B2u  24 B2u  25 B2u  26 B2u                
  3.654   3.705   4.077   4.112   4.318   4.493   4.696   5.039
 27 B2u  28 B2u  29 B2u  30 B2u  31 B2u  32 B2u  33 B2u  34 B2u                
  5.087   5.252   5.508   5.725   6.496  12.657   0.171   0.221
 35 B2u  36 B2u  37 B2u  38 B2u  39 B2u  40 B2u   6 B3u   7 B3u                
  0.419   0.524   0.551   0.601   0.697   0.750   0.908   0.985
  8 B3u   9 B3u  10 B3u  11 B3u  12 B3u  13 B3u  14 B3u  15 B3u                
  1.133   1.308   1.386   1.510   1.613   1.620   1.889   2.204
 16 B3u  17 B3u  18 B3u  19 B3u  20 B3u  21 B3u  22 B3u  23 B3u                
  2.298   2.478   2.785   3.033   3.105   3.308   3.389   3.459
 24 B3u  25 B3u  26 B3u  27 B3u  28 B3u  29 B3u  30 B3u  31 B3u                
  3.667   3.710   3.764   4.099   4.150   4.305   4.382   4.542
 32 B3u  33 B3u  34 B3u  35 B3u  36 B3u  37 B3u  38 B3u  39 B3u                
  4.634   5.066   5.112   5.353   5.539   5.727   6.077   6.470
 40 B3u  41 B3u  42 B3u  43 B3u  44 B3u  45 B3u  46 B3u  47 B3u                
  6.817  13.012  15.964
 48 B3u  49 B3u  50 B3u                                                        

 Beta MOs, Unrestricted
 -- Occupied --                  
-11.240 -11.235 -11.234 -11.236 -11.240 -11.234  -1.142  -0.828
  1 Ag    2 Ag    1 B1g   1 B2u   1 B3u   2 B3u   3 Ag    4 Ag                 
 -0.705  -0.497  -0.814  -0.491  -0.322  -0.344  -0.496  -1.022
  5 Ag    6 Ag    2 B1g   3 B1g   1 B2g   1 B3g   1 B1u   2 B2u                
 -0.612  -0.598  -0.997  -0.647  -0.573
  3 B2u   4 B2u   3 B3u   4 B3u   5 B3u                                        
 -- Virtual --                   
  0.147   0.200   0.355   0.419   0.508   0.571   0.637   0.644
  7 Ag    8 Ag    9 Ag   10 Ag   11 Ag   12 Ag   13 Ag   14 Ag                 
  0.714   1.002   1.034   1.215   1.307   1.505   1.596   1.719
 15 Ag   16 Ag   17 Ag   18 Ag   19 Ag   20 Ag   21 Ag   22 Ag                 
  1.741   2.183   2.372   2.663   2.733   2.910   3.088   3.132
 23 Ag   24 Ag   25 Ag   26 Ag   27 Ag   28 Ag   29 Ag   30 Ag                 
  3.288   3.339   3.397   3.430   3.683   3.880   4.052   4.103
 31 Ag   32 Ag   33 Ag   34 Ag   35 Ag   36 Ag   37 Ag   38 Ag                 
  4.438   4.487   4.564   4.695   4.852   4.910   5.326   5.440
 39 Ag   40 Ag   41 Ag   42 Ag   43 Ag   44 Ag   45 Ag   46 Ag                 
  5.980   6.233   9.455  13.119   0.201   0.360   0.595   0.637
 47 Ag   48 Ag   49 Ag   50 Ag    4 B1g   5 B1g   6 B1g   7 B1g                
  0.646   0.735   0.938   1.027   1.238   1.486   1.515   1.609
  8 B1g   9 B1g  10 B1g  11 B1g  12 B1g  13 B1g  14 B1g  15 B1g                
  1.731   2.082   2.181   2.742   2.876   3.166   3.301   3.386
 16 B1g  17 B1g  18 B1g  19 B1g  20 B1g  21 B1g  22 B1g  23 B1g                
[...]
     12 H                     0.229868       0.020623
  --------------------------------------------------------
  Sum of atomic charges =     1.000000
  Sum of spin   charges =    -1.000000

 -----------------------------------------------------------------
                    Cartesian Multipole Moments
 -----------------------------------------------------------------
    Charge (ESU x 10^10)
                 4.8032
    Dipole Moment (Debye)
         X      -0.0000      Y      -0.0000      Z      -0.0000
       Tot       0.0000
    Quadrupole Moments (Debye-Ang)
        XX     -18.8101     XY       0.0000     YY     -21.3756
        XZ      -0.0000     YZ       0.0000     ZZ     -35.4426
    Octopole Moments (Debye-Ang^2)
       XXX      -0.0000    XXY      -0.0000    XYY      -0.0000
       YYY      -0.0000    XXZ      -0.0000    XYZ      -0.0000
       YYZ       0.0000    XZZ      -0.0000    YZZ       0.0000
       ZZZ      -0.0000
    Hexadecapole Moments (Debye-Ang^3)
      XXXX    -197.2715   XXXY       0.0000   XXYY     -70.1902
      XYYY      -0.0000   YYYY    -221.5511   XXXZ      -0.0000
      XXYZ      -0.0000   XYYZ       0.0000   YYYZ      -0.0000
      XXZZ     -52.2670   XYZZ       0.0000   YYZZ     -58.3054
      XZZZ       0.0000   YZZZ      -0.0000   ZZZZ     -37.4572
 -----------------------------------------------------------------
 DrvMan completing analytic gradient of the correlated energy
 Correlated dipole moment
            1
    1  -0.0000000
    2  -0.0000000
    3  -0.0000000
 Energy read as -231.416725756
 Full Analytical Gradient: (in a.u., or Hartree/Bohr)
             1             2             3             4             5
    1   -0.00000017   -0.00011687    0.00011687    0.00000017   -0.00008358
    2   -0.00001352    0.00011165    0.00011165   -0.00001352    0.00000000
    3    0.00000000   -0.00000000   -0.00000000    0.00000000    0.00000000
             6             7             8             9            10
    1    0.00001229    0.00011687    0.00000017   -0.00011687   -0.00000017
    2   -0.00000000   -0.00011165    0.00001352   -0.00011165    0.00001352
    3   -0.00000000   -0.00000000   -0.00000000    0.00000000   -0.00000000
            11            12
    1    0.00008358   -0.00001229
    2   -0.00000000    0.00000000
    3   -0.00000000    0.00000000
 Gradient time:  CPU 2.55 s  wall 4.48 s
 Geometry Optimization Parameters
   NAtoms,    NIC,     NZ,  NCons,   NDum,   NFix, NCnnct, MaxDiis
       12      78       0       0       0       0       0       0

 Cartesian Hessian Update
 Hessian Updated using BFGS Update


** GEOMETRY OPTIMIZATION IN DELOCALIZED INTERNAL COORDINATES **
   Searching for a Minimum

   Optimization Cycle:   4

                       Coordinates (Angstroms)
     ATOM                X               Y               Z
      1  H         1.2465484969   -2.1657767242    0.0000000000
      2  C         0.6841297998   -1.2444136234    0.0000000000
      3  C        -0.6841297998   -1.2444136234    0.0000000000
      4  H        -1.2465484969   -2.1657767242    0.0000000000
      5  C        -1.3773586499    0.0000000000    0.0000000000
      6  H        -2.4592307612    0.0000000000    0.0000000000
      7  C        -0.6841297998    1.2444136234    0.0000000000
      8  H        -1.2465484969    2.1657767242    0.0000000000
      9  C         0.6841297998    1.2444136234    0.0000000000
     10  H         1.2465484969    2.1657767242    0.0000000000
     11  C         1.3773586499    0.0000000000    0.0000000000
     12  H         2.4592307612    0.0000000000    0.0000000000
   Point Group: d2h   Number of degrees of freedom:     6


   Energy is   -231.416725756

 Hessian Updated using BFGS Update

  6 Hessian modes will be used to form the next step
  Hessian Eigenvalues:
     0.113848    0.235262    0.344293    0.353326    0.478933    0.531697

 Minimum Search - Taking Simple RFO Step
 Searching for Lamda that Minimizes Along All modes
 Value Taken    Lamda =   0.00000000
 Step Taken.  Stepsize is  0.001145

                             Maximum     Tolerance    Cnvgd?
         Gradient           0.000162      0.000300     YES
         Displacement       0.000890      0.001200     YES
         Energy change     -0.000013      0.000001      NO


                       Distance Matrix (Angstroms)
             H (  1)   C (  2)   C (  3)   H (  4)   C (  5)   H (  6)
   C (  2)  1.079456
   C (  3)  2.139259  1.368260
   H (  4)  2.493097  2.139259  1.079456
   C (  5)  3.402275  2.407966  1.424476  2.169724
   H (  6)  4.292248  3.380722  2.167844  2.482174  1.081872
   C (  7)  3.918790  2.840140  2.488827  3.456257  1.424476  2.167844
   H (  8)  4.997788  3.918790  3.456257  4.331553  2.169724  2.482174
   C (  9)  3.456257  2.488827  2.840140  3.918790  2.407966  3.380722
   H ( 10)  4.331553  3.456257  3.918790  4.997788  3.402275  4.292248
   C ( 11)  2.169724  1.424476  2.407966  3.402275  2.754717  3.836589
   H ( 12)  2.482174  2.167844  3.380722  4.292248  3.836589  4.918462
             C (  7)   H (  8)   C (  9)   H ( 10)   C ( 11)
   H (  8)  1.079456
   C (  9)  1.368260  2.139259
   H ( 10)  2.139259  2.493097  1.079456
   C ( 11)  2.407966  3.402275  1.424476  2.169724
   H ( 12)  3.380722  4.292248  2.167844  2.482174  1.081872

 Final energy is   -231.41672575616309     


 ******************************
 **  OPTIMIZATION CONVERGED  **
 ******************************

                       Coordinates (Angstroms)
     ATOM                X               Y               Z
      1  H         1.2465484969   -2.1657767242    0.0000000000
      2  C         0.6841297998   -1.2444136234    0.0000000000
      3  C        -0.6841297998   -1.2444136234    0.0000000000
      4  H        -1.2465484969   -2.1657767242    0.0000000000
      5  C        -1.3773586499    0.0000000000    0.0000000000
      6  H        -2.4592307612    0.0000000000    0.0000000000
      7  C        -0.6841297998    1.2444136234    0.0000000000
      8  H        -1.2465484969    2.1657767242    0.0000000000
      9  C         0.6841297998    1.2444136234    0.0000000000
     10  H         1.2465484969    2.1657767242    0.0000000000
     11  C         1.3773586499    0.0000000000    0.0000000000
     12  H         2.4592307612    0.0000000000    0.0000000000

Z-matrix Print:
$molecule
0 1
C 
H  1 1.079456
C  1 1.368260 2 121.400737
H  3 1.079456 1 121.400737 2 -0.000000 0
C  1 1.424476 2 119.478278 3 -180.000000 0
H  5 1.081872 1 119.120986 2 -0.000000 0
C  5 1.424476 1 121.758029 2 -180.000000 0
H  7 1.079456 5 119.478278 1 -180.000000 0
C  7 1.368260 5 119.120986 1 -0.000000 0
H  9 1.079456 7 121.400737 5 -180.000000 0
C  9 1.424476 7 119.120986 5 -0.000000 0
H  11 1.081872 9 119.120986 7 -180.000000 0
$end


 --------------------------------------------------------------
             Orbital Energies (a.u.) and Symmetries
 --------------------------------------------------------------

 Alpha MOs, Unrestricted
 -- Occupied --                  
-11.240 -11.235 -11.234 -11.236 -11.240 -11.234  -1.142  -0.826
  1 Ag    2 Ag    1 B1g   1 B2u   1 B3u   2 B3u   3 Ag    4 Ag                 
 -0.705  -0.498  -0.816  -0.489  -0.322  -0.344  -0.496  -1.022
  5 Ag    6 Ag    2 B1g   3 B1g   1 B2g   1 B3g   1 B1u   2 B2u                
 -0.613  -0.597  -0.998  -0.647  -0.573
  3 B2u   4 B2u   3 B3u   4 B3u   5 B3u                                        
 -- Virtual --                   
  0.147   0.201   0.354   0.419   0.508   0.573   0.639   0.644
  7 Ag    8 Ag    9 Ag   10 Ag   11 Ag   12 Ag   13 Ag   14 Ag                 
  0.712   1.002   1.033   1.217   1.308   1.505   1.595   1.717
 15 Ag   16 Ag   17 Ag   18 Ag   19 Ag   20 Ag   21 Ag   22 Ag                 
  1.741   2.197   2.368   2.663   2.736   2.902   3.089   3.136
 23 Ag   24 Ag   25 Ag   26 Ag   27 Ag   28 Ag   29 Ag   30 Ag                 
  3.289   3.338   3.397   3.430   3.684   3.888   4.049   4.104
 31 Ag   32 Ag   33 Ag   34 Ag   35 Ag   36 Ag   37 Ag   38 Ag                 
  4.436   4.483   4.551   4.695   4.850   4.911   5.326   5.438
 39 Ag   40 Ag   41 Ag   42 Ag   43 Ag   44 Ag   45 Ag   46 Ag                 
  5.986   6.241   9.456  13.118   0.201   0.361   0.594   0.637
 47 Ag   48 Ag   49 Ag   50 Ag    4 B1g   5 B1g   6 B1g   7 B1g                
  0.644   0.736   0.939   1.028   1.236   1.487   1.514   1.608
  8 B1g   9 B1g  10 B1g  11 B1g  12 B1g  13 B1g  14 B1g  15 B1g                
  1.733   2.088   2.167   2.739   2.884   3.163   3.301   3.386
 16 B1g  17 B1g  18 B1g  19 B1g  20 B1g  21 B1g  22 B1g  23 B1g                
  3.499   3.686   3.902   4.105   4.147   4.406   4.466   4.540
 24 B1g  25 B1g  26 B1g  27 B1g  28 B1g  29 B1g  30 B1g  31 B1g                
  4.675   4.870   5.348   5.396   6.089   6.255   6.323   7.280
 32 B1g  33 B1g  34 B1g  35 B1g  36 B1g  37 B1g  38 B1g  39 B1g                
 13.752   0.325   0.479   0.666   0.864   1.210   1.299   1.499
 40 B1g   2 B2g   3 B2g   4 B2g   5 B2g   6 B2g   7 B2g   8 B2g                
  1.767   2.448   2.830   2.992   3.074   3.236   3.616   3.708
  9 B2g  10 B2g  11 B2g  12 B2g  13 B2g  14 B2g  15 B2g  16 B2g                
  3.905   4.090   4.211   4.494   4.701   5.030   5.124   5.797
 17 B2g  18 B2g  19 B2g  20 B2g  21 B2g  22 B2g  23 B2g  24 B2g                
  0.473   0.836   0.855   1.283   1.506   2.437   2.602   3.000
  2 B3g   3 B3g   4 B3g   5 B3g   6 B3g   7 B3g   8 B3g   9 B3g                
  3.057   3.228   3.458   3.707   3.916   4.069   4.202   4.619
 10 B3g  11 B3g  12 B3g  13 B3g  14 B3g  15 B3g  16 B3g  17 B3g                
  5.112   0.132   0.575   0.951   1.219   1.583   1.802   2.536
 18 B3g   1 Au    2 Au    3 Au    4 Au    5 Au    6 Au    7 Au                 
  2.957   3.365   3.444   3.620   3.654   4.055   4.164   4.450
  8 Au    9 Au   10 Au   11 Au   12 Au   13 Au   14 Au   15 Au                 
  4.654   5.145   5.393   0.119   0.433   0.572   0.625   0.957
 16 Au   17 Au   18 Au    2 B1u   3 B1u   4 B1u   5 B1u   6 B1u                
  1.123   1.209   1.591   2.332   2.527   2.790   2.942   2.996
  7 B1u   8 B1u   9 B1u  10 B1u  11 B1u  12 B1u  13 B1u  14 B1u                
  3.217   3.380   3.450   3.595   4.118   4.161   4.387   4.628
 15 B1u  16 B1u  17 B1u  18 B1u  19 B1u  20 B1u  21 B1u  22 B1u                
  5.006   5.354   0.169   0.394   0.412   0.519   0.595   0.740
 23 B1u  24 B1u   5 B2u   6 B2u   7 B2u   8 B2u   9 B2u  10 B2u                
  0.898   1.085   1.307   1.375   1.475   1.490   1.636   2.271
 11 B2u  12 B2u  13 B2u  14 B2u  15 B2u  16 B2u  17 B2u  18 B2u                
  2.443   2.476   2.769   2.923   3.038   3.306   3.362   3.387
 19 B2u  20 B2u  21 B2u  22 B2u  23 B2u  24 B2u  25 B2u  26 B2u                
  3.648   3.708   4.076   4.116   4.309   4.491   4.699   5.035
 27 B2u  28 B2u  29 B2u  30 B2u  31 B2u  32 B2u  33 B2u  34 B2u                
  5.089   5.255   5.515   5.728   6.490  12.686   0.171   0.222
 35 B2u  36 B2u  37 B2u  38 B2u  39 B2u  40 B2u   6 B3u   7 B3u                
  0.421   0.522   0.551   0.600   0.697   0.751   0.906   0.986
  8 B3u   9 B3u  10 B3u  11 B3u  12 B3u  13 B3u  14 B3u  15 B3u                
  1.133   1.314   1.386   1.508   1.612   1.623   1.889   2.204
 16 B3u  17 B3u  18 B3u  19 B3u  20 B3u  21 B3u  22 B3u  23 B3u                
  2.305   2.468   2.784   3.033   3.104   3.302   3.392   3.461
 24 B3u  25 B3u  26 B3u  27 B3u  28 B3u  29 B3u  30 B3u  31 B3u                
  3.675   3.708   3.764   4.096   4.152   4.315   4.383   4.545
 32 B3u  33 B3u  34 B3u  35 B3u  36 B3u  37 B3u  38 B3u  39 B3u                
  4.631   5.073   5.110   5.352   5.529   5.731   6.076   6.482
 40 B3u  41 B3u  42 B3u  43 B3u  44 B3u  45 B3u  46 B3u  47 B3u                
  6.819  13.006  15.972
 48 B3u  49 B3u  50 B3u                                                        

 Beta MOs, Unrestricted
 -- Occupied --                  
-11.240 -11.235 -11.234 -11.236 -11.240 -11.234  -1.142  -0.826
  1 Ag    2 Ag    1 B1g   1 B2u   1 B3u   2 B3u   3 Ag    4 Ag                 
 -0.705  -0.498  -0.816  -0.489  -0.322  -0.344  -0.496  -1.022
  5 Ag    6 Ag    2 B1g   3 B1g   1 B2g   1 B3g   1 B1u   2 B2u                
 -0.613  -0.597  -0.998  -0.647  -0.573
  3 B2u   4 B2u   3 B3u   4 B3u   5 B3u                                        
 -- Virtual --                   
  0.147   0.201   0.354   0.419   0.508   0.573   0.639   0.644
  7 Ag    8 Ag    9 Ag   10 Ag   11 Ag   12 Ag   13 Ag   14 Ag                 
  0.712   1.002   1.033   1.217   1.308   1.505   1.595   1.717
 15 Ag   16 Ag   17 Ag   18 Ag   19 Ag   20 Ag   21 Ag   22 Ag                 
  1.741   2.197   2.368   2.663   2.736   2.902   3.089   3.136
 23 Ag   24 Ag   25 Ag   26 Ag   27 Ag   28 Ag   29 Ag   30 Ag                 
  3.289   3.338   3.397   3.430   3.684   3.888   4.049   4.104
 31 Ag   32 Ag   33 Ag   34 Ag   35 Ag   36 Ag   37 Ag   38 Ag                 
  4.436   4.483   4.551   4.695   4.850   4.911   5.326   5.438
 39 Ag   40 Ag   41 Ag   42 Ag   43 Ag   44 Ag   45 Ag   46 Ag                 
  5.986   6.241   9.456  13.118   0.201   0.361   0.594   0.637
 47 Ag   48 Ag   49 Ag   50 Ag    4 B1g   5 B1g   6 B1g   7 B1g                
  0.644   0.736   0.939   1.028   1.236   1.487   1.514   1.608
  8 B1g   9 B1g  10 B1g  11 B1g  12 B1g  13 B1g  14 B1g  15 B1g                
  1.733   2.088   2.167   2.739   2.884   3.163   3.301   3.386
 16 B1g  17 B1g  18 B1g  19 B1g  20 B1g  21 B1g  22 B1g  23 B1g                
  3.499   3.686   3.902   4.105   4.147   4.406   4.466   4.540
 24 B1g  25 B1g  26 B1g  27 B1g  28 B1g  29 B1g  30 B1g  31 B1g                
  4.675   4.870   5.348   5.396   6.089   6.255   6.323   7.280
 32 B1g  33 B1g  34 B1g  35 B1g  36 B1g  37 B1g  38 B1g  39 B1g                
 13.752   0.325   0.479   0.666   0.864   1.210   1.299   1.499
 40 B1g   2 B2g   3 B2g   4 B2g   5 B2g   6 B2g   7 B2g   8 B2g                
  1.767   2.448   2.830   2.992   3.074   3.236   3.616   3.708
  9 B2g  10 B2g  11 B2g  12 B2g  13 B2g  14 B2g  15 B2g  16 B2g                
  3.905   4.090   4.211   4.494   4.701   5.030   5.124   5.797
 17 B2g  18 B2g  19 B2g  20 B2g  21 B2g  22 B2g  23 B2g  24 B2g                
  0.473   0.836   0.855   1.283   1.506   2.437   2.602   3.000
  2 B3g   3 B3g   4 B3g   5 B3g   6 B3g   7 B3g   8 B3g   9 B3g                
  3.057   3.228   3.458   3.707   3.916   4.069   4.202   4.619
 10 B3g  11 B3g  12 B3g  13 B3g  14 B3g  15 B3g  16 B3g  17 B3g                
  5.112   0.132   0.575   0.951   1.219   1.583   1.802   2.536
 18 B3g   1 Au    2 Au    3 Au    4 Au    5 Au    6 Au    7 Au                 
  2.957   3.365   3.444   3.620   3.654   4.055   4.164   4.450
  8 Au    9 Au   10 Au   11 Au   12 Au   13 Au   14 Au   15 Au                 
  4.654   5.145   5.393   0.119   0.433   0.572   0.625   0.957
 16 Au   17 Au   18 Au    2 B1u   3 B1u   4 B1u   5 B1u   6 B1u                
  1.123   1.209   1.591   2.332   2.527   2.790   2.942   2.996
  7 B1u   8 B1u   9 B1u  10 B1u  11 B1u  12 B1u  13 B1u  14 B1u                
  3.217   3.380   3.450   3.595   4.118   4.161   4.387   4.628
 15 B1u  16 B1u  17 B1u  18 B1u  19 B1u  20 B1u  21 B1u  22 B1u                
  5.006   5.354   0.169   0.394   0.412   0.519   0.595   0.740
 23 B1u  24 B1u   5 B2u   6 B2u   7 B2u   8 B2u   9 B2u  10 B2u                
  0.898   1.085   1.307   1.375   1.475   1.490   1.636   2.271
 11 B2u  12 B2u  13 B2u  14 B2u  15 B2u  16 B2u  17 B2u  18 B2u                
  2.443   2.476   2.769   2.923   3.038   3.306   3.362   3.387
 19 B2u  20 B2u  21 B2u  22 B2u  23 B2u  24 B2u  25 B2u  26 B2u                
  3.648   3.708   4.076   4.116   4.309   4.491   4.699   5.035
 27 B2u  28 B2u  29 B2u  30 B2u  31 B2u  32 B2u  33 B2u  34 B2u                
  5.089   5.255   5.515   5.728   6.490  12.686   0.171   0.222
 35 B2u  36 B2u  37 B2u  38 B2u  39 B2u  40 B2u   6 B3u   7 B3u                
  0.421   0.522   0.551   0.600   0.697   0.751   0.906   0.986
  8 B3u   9 B3u  10 B3u  11 B3u  12 B3u  13 B3u  14 B3u  15 B3u                
  1.133   1.314   1.386   1.508   1.612   1.623   1.889   2.204
 16 B3u  17 B3u  18 B3u  19 B3u  20 B3u  21 B3u  22 B3u  23 B3u                
  2.305   2.468   2.784   3.033   3.104   3.302   3.392   3.461
 24 B3u  25 B3u  26 B3u  27 B3u  28 B3u  29 B3u  30 B3u  31 B3u                
  3.675   3.708   3.764   4.096   4.152   4.315   4.383   4.545
 32 B3u  33 B3u  34 B3u  35 B3u  36 B3u  37 B3u  38 B3u  39 B3u                
  4.631   5.073   5.110   5.352   5.529   5.731   6.076   6.482
 40 B3u  41 B3u  42 B3u  43 B3u  44 B3u  45 B3u  46 B3u  47 B3u                
  6.819  13.006  15.972
 48 B3u  49 B3u  50 B3u                                                        
 --------------------------------------------------------------

          Ground-State Mulliken Net Atomic Charges

     Atom                 Charge (a.u.)    Spin (a.u.)
  --------------------------------------------------------
      1 H                     0.223199       0.001624
      2 C                    -0.089860      -0.019370
      3 C                    -0.089860      -0.019370
      4 H                     0.223199       0.001624
      5 C                     0.003453      -0.485130
      6 H                     0.229868       0.020623
      7 C                    -0.089860      -0.019370
      8 H                     0.223199       0.001624
      9 C                    -0.089860      -0.019370
     10 H                     0.223199       0.001624
     11 C                     0.003453      -0.485130
     12 H                     0.229868       0.020623
  --------------------------------------------------------
  Sum of atomic charges =     1.000000
  Sum of spin   charges =    -1.000000

 -----------------------------------------------------------------
                    Cartesian Multipole Moments
 -----------------------------------------------------------------
    Charge (ESU x 10^10)
                 4.8032
    Dipole Moment (Debye)
         X      -0.0000      Y      -0.0000      Z      -0.0000
       Tot       0.0000
    Quadrupole Moments (Debye-Ang)
        XX     -18.8101     XY       0.0000     YY     -21.3756
        XZ      -0.0000     YZ       0.0000     ZZ     -35.4426
    Octopole Moments (Debye-Ang^2)
       XXX      -0.0000    XXY      -0.0000    XYY      -0.0000
       YYY      -0.0000    XXZ      -0.0000    XYZ      -0.0000
       YYZ       0.0000    XZZ      -0.0000    YZZ       0.0000
       ZZZ      -0.0000
    Hexadecapole Moments (Debye-Ang^3)
      XXXX    -197.2715   XXXY       0.0000   XXYY     -70.1902
      XYYY      -0.0000   YYYY    -221.5511   XXXZ      -0.0000
      XXYZ      -0.0000   XYYZ       0.0000   YYYZ      -0.0000
      XXZZ     -52.2670   XYZZ       0.0000   YYZZ     -58.3054
      XZZZ       0.0000   YZZZ      -0.0000   ZZZZ     -37.4572
 -----------------------------------------------------------------
Archival summary:
1\1\node22\OPT\ProcedureUnspecified\BasisUnspecified\66\krylov\ThuSep608:57:442018ThuSep608:57:442018\0\\#,OPT,ProcedureUnspecified,BasisUnspecified,\\0,1\C\H,1,1.07946\C,1,1.36826,2,121.401\H,3,1.07946,1,121.401,2,-0,0\C,1,1.42448,2,119.478,3,-180,0\H,5,1.08187,1,119.121,2,-0,0\C,5,1.42448,1,121.758,2,-180,0\H,7,1.07946,5,119.478,1,-180,0\C,7,1.36826,5,119.121,1,-0,0\H,9,1.07946,7,121.401,5,-180,0\C,9,1.42448,7,119.121,5,-0,0\H,11,1.08187,9,119.121,7,-180,0\\HF=-230.772975\\@

 Total job time:  72383.14s(wall), 491039.65s(cpu) 
 Thu Sep  6 08:57:44 2018

        *************************************************************
        *                                                           *
        *  Thank you very much for using Q-Chem.  Have a nice day.  *
        *                                                           *
        *************************************************************


